TITLE="CMs_NON_Orthogonal Re = 100.0"
VARIABLES = X,Y,Rho,U,V
ZONE
I = 101	J = 101
F=POINT
1,1,1.0004622015011766,-7.554564013627616e-8,-2.1611810349473774e-7
1,2,1.0004620588975093,2.298273059851187e-7,-1.3048733772451056e-6
1,3,1.0004629064770914,2.6913478813135483e-7,-2.8586649211620666e-6
1,4,1.000464886624798,1.0294122784099615e-7,-4.182975849411348e-6
1,5,1.0004678884395846,-1.8092130870066307e-7,-4.834210684791728e-6
1,6,1.0004717292074239,-5.29337624243583e-7,-4.557928219145906e-6
1,7,1.0004762216061263,-9.120885818396725e-7,-3.2130736536189255e-6
1,8,1.0004811931442008,-1.3116547015085916e-6,-7.253225980203522e-7
1,9,1.0004864900099284,-1.7176449466010049e-6,2.9396568035760384e-6
1,10,1.0004919760692814,-2.123812785557185e-6,7.791992031654647e-6
1,11,1.0004975305195674,-2.5263893384007166e-6,1.3826952449022091e-5
1,12,1.000503045388893,-2.9231153363711704e-6,2.103079514246468e-5
1,13,1.0005084232713681,-3.312658396997314e-6,2.9384259599938634e-5
1,14,1.0005135754030565,-3.694253982176767e-6,3.8864859361949344e-5
1,15,1.000518420076058,-4.0674786135502706e-6,4.9448170402926936e-5
1,16,1.0005228813551421,-4.4321054032154035e-6,6.110872114411622e-5
1,17,1.0005268880514464,-4.78801035560389e-6,7.382038203759171e-5
1,18,1.0005303729116102,-5.135112227886167e-6,8.75566698069987e-5
1,19,1.0005332719845244,-5.4733333744235265e-6,0.00010229075790393973
1,20,1.000535524135436,-5.802575430084243e-6,0.00011799553269424052
1,21,1.000537070681078,-6.1227040420211876e-6,0.0001346434475784617
1,22,1.0005378551257489,-6.433540698611374e-6,0.00015220648038874856
1,23,1.0005378229805606,-6.734858508503234e-6,0.0001706559324510159
1,24,1.000536921652748,-7.026381721168818e-6,0.00018996235684695165
1,25,1.0005351003928291,-7.307786921856395e-6,0.00021009535104789067
1,26,1.0005323102909447,-7.57870648639537e-6,0.0002310234904972833
1,27,1.0005285043135936,-7.83873266660357e-6,0.000252714139818765
1,28,1.0005236373748254,-8.087423281381207e-6,0.00027513341020853624
1,29,1.0005176664351358,-8.324307545737368e-6,0.00029824600342629685
1,30,1.000510550623751,-8.548893227280083e-6,0.0003220152041493503
1,31,1.0005022513786872,-8.760673691693847e-6,0.00034640276598311986
1,32,1.0004927326012047,-8.959136164338214e-6,0.0003713689464945495
1,33,1.0004819608196283,-9.143769727311944e-6,0.00039687244210468136
1,34,1.0004699053596704,-9.314074494166665e-6,0.00042287047179981395
1,35,1.0004565385164854,-9.469570399417671e-6,0.0004493187664863089
1,36,1.0004418357258775,-9.609807147195058e-6,0.0004761717063242998
1,37,1.0004257757299668,-9.734373658877784e-6,0.0005033823692314896
1,38,1.0004083407349298,-9.842908672364678e-6,0.0005309027259233339
1,39,1.000389516556124,-9.935110715324116e-6,0.0005586837514526867
1,40,1.0003692927483836,-1.0010749232292165e-5,0.0005866756812044687
1,41,1.0003476627168155,-1.0069674960512204e-5,0.0006148281885821043
1,42,1.000324623806104,-1.0111831483301182e-5,0.0006430907044155908
1,43,1.0003001773637,-1.0137265918138773e-5,0.0006714126632378185
1,44,1.0002743287752118,-1.0146140850704822e-5,0.0006997438879690382
1,45,1.0002470874674856,-1.0138745324585688e-5,0.0007280349068853434
1,46,1.0002184668780651,-1.0115507220748195e-5,0.0007562374052918563
1,47,1.000188484386668,-1.007700467937504e-5,0.0007843046155814611
1,48,1.0001571612077975,-1.0023979173718423e-5,0.0008121918382926716
1,49,1.0001245222402404,-9.957347719949647e-6,0.0008398569090292215
1,50,1.0000905958729904,-9.878217174839882e-6,0.0008672607933091928
1,51,1.000055413743297,-9.787897925677143e-6,0.0008943681371541234
1,52,1.0000190104466649,-9.68792035178082e-6,0.0009211479441415636
1,53,0.999981423194142,-9.580051167889666e-6,0.000947574221943955
1,54,0.999942691416632,-9.466313568397106e-6,0.0009736267568835236
1,55,0.9999028563106385,-9.349008081965828e-6,0.0009992918776332558
1,56,0.9998619603244007,-9.230738731259217e-6,0.0010245633535291144
1,57,0.9998200465768979,-9.114441213560619e-6,0.0010494433104313917
1,58,0.999777158206768,-9.003418549551871e-6,0.0010739432957024594
1,59,0.9997333376400322,-8.901380749105489e-6,0.0010980854018008035
1,60,0.9996886257698654,-8.812495033355458e-6,0.0011219035654535356
1,61,0.9996430610311244,-8.74144304505487e-6,0.001145444984634769
1,62,0.999596678355963,-8.693493015364388e-6,0.001168771755301631
1,63,0.9995495079829569,-8.674583301991024e-6,0.0011919627109117747
1,64,0.9995015740941938,-8.691427163360079e-6,0.0012151155518667937
1,65,0.9994528932358906,-8.751635366466018e-6,0.0012383492994497746
1,66,0.9994034724771232,-8.86386906528373e-6,0.0012618071479131366
1,67,0.9993533072348472,-9.038020102712745e-6,0.0012856598154627088
1,68,0.9993023786869043,-9.2854347746349e-6,0.0013101094577541814
1,69,0.9992506506567091,-9.61917947284427e-6,0.0013353943313120361
1,70,0.9991980658369458,-1.0054369504807884e-5,0.0013617942679732568
1,71,0.9991445411631381,-1.0608562163202352e-5,0.0013896372643486137
1,72,0.9990899621138729,-1.1302243451832437e-5,0.001419307260393602
1,73,0.9990341756274552,-1.2159415035383924e-5,0.0014512535738688927
1,74,0.9989769812582966,-1.3208324193738074e-5,0.0014860021095060383
1,75,0.9989181200565476,-1.448235483413915e-5,0.001524169048757399
1,76,0.9988572605267662,-1.6021146124741015e-5,0.0015664772497143026
1,77,0.9987939807850041,-1.787198141429797e-5,0.0016137764379828673
1,78,0.9987277457846154,-2.009155967189029e-5,0.001667067669930058
1,79,0.9986578780555451,-2.2748246540876157e-5,0.0017275337847650809
1,80,0.9985835198974443,-2.5925011675991594e-5,0.001796576889649646
1,81,0.9985035841416894,-2.9723274439493286e-5,0.0018758657681215128
1,82,0.9984166895167164,-3.426807415336869e-5,0.0019673955297245596
1,83,0.9983210749070777,-3.971508720377394e-5,0.002073564753985389
1,84,0.9982144843082165,-4.626040611528688e-5,0.0021972754174578724
1,85,0.9980940102219891,-5.415436557429068e-5,0.002342066031466264
1,86,0.9979558769892751,-6.372161310453818e-5,0.002512290523176417
1,87,0.9977951350579348,-7.53907896622461e-5,0.0027133656135746587
1,88,0.9976052197933212,-8.97396221573248e-5,0.002952117971951999
1,89,0.9973772977740277,-0.00010756500576707756,0.0032372859982206653
1,90,0.9970992686681076,-0.0001299951542493399,0.003580259913456804
1,91,0.996754187224001,-0.00015867417962904962,0.003996207322158276
1,92,0.9963176672082168,-0.00019607626151062235,0.004505828898912444
1,93,0.9957534084674672,-0.0002460590676269072,0.0051381868604323646
1,94,0.9950050640097171,-0.0003148759908075705,0.005935394302505134
1,95,0.9939804760319225,-0.00041309315728838263,0.006960621512124048
1,96,0.9925186543656168,-0.0005593069360524199,0.008311971277904857
1,97,0.9903134737068428,-0.0007870189159418333,0.01014579504954628
1,98,0.9867145138742605,-0.0011501333236658448,0.012705446202869206
1,99,0.980150898633701,-0.0016280948038691937,0.016251600056009372
1,100,0.9667508667983387,-0.0007834095364630496,0.01986162438986528
1,101,0.9343879114486543,0.024601737873253156,0.009808715377285898
2,1,1.0004623444045528,1.5955007063025884e-6,-5.207128564120965e-7
2,2,1.0004622022630802,3.1229791568618507e-6,-2.827234725388593e-6
2,3,1.0004630356556377,3.120772955008418e-6,-5.639559360447963e-6
2,4,1.0004648105453031,2.0026743830626405e-6,-7.5828007437429244e-6
2,5,1.00046743907546,1.8453203336630037e-7,-7.690353998615978e-6
2,6,1.0004707903980405,-2.050585364564455e-6,-5.326068659789842e-6
2,7,1.0004747193577792,-4.524067911318048e-6,-9.354245687170302e-8
2,8,1.000479082897283,-7.124442024325708e-6,8.241386760183668e-6
2,9,1.0004837470004733,-9.781837267950334e-6,1.9805726336902713e-5
2,10,1.0004885887305102,-1.2452230596145122e-5,3.465632608255389e-5
2,11,1.000493496072775,-1.5107830749298476e-5,5.280407708102263e-5
2,12,1.000498366911742,-1.773113472458405e-5,7.422990714422714e-5
2,13,1.000503107749466,-2.0311188962468705e-5,9.889514762160424e-5
2,14,1.000507632437848,-2.2841196458621202e-5,0.00012674844641472275
2,15,1.0005118610330512,-2.531696302831266e-5,0.00015773014068042927
2,16,1.000515718810457,-2.7735876728543844e-5,0.0001917751772014228
2,17,1.0005191354409986,-3.009623267915459e-5,0.0002288148088509013
2,18,1.0005220443191944,-3.239678495081486e-5,0.0002687777070007837
2,19,1.000524382024375,-3.463645027231483e-5,0.00031159043700002237
2,20,1.0005260878994908,-3.68141142738667e-5,0.00035717774386935904
2,21,1.000527103729214,-3.8928508156665297e-5,0.00040546247610480227
2,22,1.000527373504627,-4.097813402844286e-5,0.0004563655064236608
2,23,1.0005268432597851,-4.296122459664115e-5,0.0005098054260535279
2,24,1.00052546097126,-4.487572718268231e-5,0.0005656983278574542
2,25,1.0005231765091955,-4.6719305538786076e-5,0.0006239574336064309
2,26,1.000519941634006,-4.84893546733731e-5,0.0006844928572073248
2,27,1.00051571002954,-5.018302572144657e-5,0.0007472112518011115
2,28,1.0005104373689433,-5.179725848470901e-5,0.0008120156183121862
2,29,1.0005040814054649,-5.332882033084021e-5,0.0008788050226344394
2,30,1.0004966020858275,-5.4774350199346824e-5,0.0009474744891102587
2,31,1.0004879616791893,-5.613040716782343e-5,0.001017914820066043
2,32,1.0004781249201964,-5.73935228286776e-5,0.0010900126010463837
2,33,1.0004670591595082,-5.856025726762745e-5,0.0011636501457760555
2,34,1.0004547345208528,-5.9627258098110155e-5,0.0012387056332037768
2,35,1.0004411240580713,-6.0591322471614986e-5,0.0013150531958497544
2,36,1.0004262039115948,-6.144946158620169e-5,0.0013925632046228595
2,37,1.0004099534577329,-6.219896765475381e-5,0.0014711025151142223
2,38,1.000392355450523,-6.283748286189539e-5,0.0015505349131461465
2,39,1.0003733961493786,-6.336307030284282e-5,0.0016307215308592523
2,40,1.0003530654325985,-6.377428643077548e-5,0.0017115214633763036
2,41,1.0003313568898038,-6.407025506171092e-5,0.0017927923641638962
2,42,1.0003082678937454,-6.425074250086254e-5,0.0018743912409856227
2,43,1.0002837996443985,-6.431623395095804e-5,0.0019561752381376065
2,44,1.0002579571862382,-6.426801086934079e-5,0.0020380026183356706
2,45,1.0002307493914824,-6.410822964111434e-5,0.0021197337385305405
2,46,1.000202188910721,-6.384000143100615e-5,0.0022012322241748475
2,47,1.0001722920835872,-6.34674739158604e-5,0.0022823661462111843
2,48,1.00014107881144,-6.299591508740711e-5,0.0023630093962639397
2,49,1.0001085723844951,-6.243180032737388e-5,0.0024430430762046535
2,50,1.0000747992659116,-6.178290344598046e-5,0.0025223570885153108
2,51,1.0000397888248016,-6.105839360662402e-5,0.0026008517580804608
2,52,1.0000035730210506,-6.026893954917213e-5,0.002678439663005871
2,53,0.9999661860330475,-5.942682405693283e-5,0.0027550475229486567
2,54,0.9999276638311858,-5.854607109997138e-5,0.0028306183143229566
2,55,0.999888043686662,-5.7642590004838315e-5,0.0029051134831841034
2,56,0.9998473636176862,-5.6734340526205015e-5,0.00297851541802201
2,57,0.9998056617599106,-5.584152510122795e-5,0.0030508300814487063
2,58,0.9997629756612059,-5.4986814173141305e-5,0.00312208995772248
2,59,0.9997193414830411,-5.419561353183979e-5,0.0031923572509744915
2,60,0.9996747931046167,-5.3496382377349826e-5,0.003261727488722748
2,61,0.999629361104571,-5.2921014751566387e-5,0.0033303335115890606
2,62,0.9995830716092076,-5.2505297028094435e-5,0.003398350005976303
2,63,0.9995359449701344,-5.228945929492065e-5,0.003465998620212503
2,64,0.9994879942478828,-5.2318839019412875e-5,0.003533553830010629
2,65,0.9994392234454047,-5.2644682242784015e-5,0.0036013496716012622
2,66,0.9993896254472943,-5.332510901841032e-5,0.003669787528083338
2,67,0.9993391795784072,-5.4426279188003896e-5,0.0037393451902741114
2,68,0.999287848703434,-5.6023797751317935e-5,0.003810587413788016
2,69,0.9992355757326908,-5.8204412381031924e-5,0.0038841783319646175
2,70,0.9991822793989907,-6.10680620283982e-5,0.0039608960089433515
2,71,0.9991278490923584,-6.473035538419664e-5,0.004041649682908781
2,72,0.9990721385228469,-6.932557074648105e-5,0.004127500090423311
2,73,0.9990149578684515,-7.501030033639668e-5,0.004219683693013859
2,74,0.9989560640175517,-8.196788801623761e-5,0.004319641380969869
2,75,0.9988951483424134,-9.041386319486813e-5,0.004429052880152636
2,76,0.9988318213317005,-0.00010060262747686146,0.004549877764357982
2,77,0.9987655931297724,-0.0001128357497993804,0.004684404939659867
2,78,0.9986958487979741,-0.00012747234050258593,0.004835312110202475
2,79,0.9986218166262724,-0.00014494217080791123,0.005005738176156365
2,80,0.9985425273270344,-0.0001657624561094061,0.005199371245438932
2,81,0.9984567610267264,-0.0001905596337910758,0.005420557170823953
2,82,0.9983629778793699,-0.00022009803739192021,0.0056744336421283995
2,83,0.9982592262448746,-0.0002553182857653112,0.005967098499720639
2,84,0.9981430198486164,-0.00029738954699014015,0.006305822130605341
2,85,0.9980111711008295,-0.00034778198394198585,0.006699320094917714
2,86,0.9978595615006566,-0.00040836896233747744,0.007158105880066918
2,87,0.9976828195175736,-0.00048157387920093434,0.007694954974875863
2,88,0.9974738595450102,-0.0005705847605444545,0.008325520337099475
2,89,0.9972232064614752,-0.0006796731972867633,0.009069158615728198
2,90,0.9969179806319681,-0.0008146753622248735,0.009950040573431101
2,91,0.9965403283585782,-0.0009837257993604103,0.010998636865264247
2,92,0.9960649184879247,-0.0011983808026992976,0.01225364441140782
2,93,0.9954548128662863,-0.0014753140058332858,0.013764279736310149
2,94,0.9946544115597059,-0.0018387195293020633,0.015592292597861228
2,95,0.9935769813450971,-0.0023229743015297823,0.017811109928484357
2,96,0.9920820587031971,-0.0029719108283327396,0.02049283430947413
2,97,0.989935229617572,-0.0038149661363225816,0.023650237065240994
2,98,0.9867506791514851,-0.004717132579919089,0.027015081883223775
2,99,0.9820167397100839,-0.004560986520680516,0.02924748015380878
2,100,0.975836006108461,0.0027329972467768577,0.02566898937123114
2,101,0.972803238123232,0.04693535116409587,0.008072571181956657
3,1,1.0004614991536602,2.5593930305787813e-6,-5.577509855975156e-7
3,2,1.0004613699153593,5.345691810424811e-6,-2.8102795283506037e-6
3,3,1.0004621993681266,4.7421509970264386e-6,-5.011472142843624e-6
3,4,1.0004638630623752,1.7222306489386836e-6,-5.4799537218494125e-6
3,5,1.000466259906975,-2.9077283552162926e-6,-3.0230640714755714e-6
3,6,1.0004692773696129,-8.562632519198355e-6,3.2000156719702848e-6
3,7,1.000472795636441,-1.4843164906885598e-5,1.375900640649733e-5
3,8,1.0004766943895917,-2.1483238756135008e-5,2.902139950206746e-5
3,9,1.0004808575282573,-2.8306904609361786e-5,4.920871581609684e-5
3,10,1.0004851755268436,-3.519804319981371e-5,7.443939529673454e-5
3,11,1.0004895461971004,-4.208008376439283e-5,0.00010475980945796225
3,12,1.000493874560934,-4.890260244923384e-5,0.00014016636314883503
3,13,1.0004980722945336,-5.5632452956313345e-5,0.00018062081400689112
3,14,1.0005020570096417,-6.224785710058246e-5,0.00022606100023458351
3,15,1.0005057515129177,-6.87344364592644e-5,0.00027640806651699776
3,16,1.0005090831155972,-7.508252868153809e-5,0.00033157147160306315
3,17,1.0005119830236797,-8.128536338583971e-5,0.00039145218377452997
3,18,1.00051438582054,-8.733781976319825e-5,0.0004559448474348502
3,19,1.0005162290399447,-9.323558217988717e-5,0.000524938981198413
3,20,1.0005174528253102,-9.897457106858053e-5,0.0005983197410645184
3,21,1.0005179996655322,-0.00010455056619343528,0.0006759681422585811
3,22,1.0005178142005797,-0.0001099589658726997,0.0007577611485586392
3,23,1.0005168430866185,-0.0001151946433252947,0.0008435714430842283
3,24,1.0005150349148422,-0.00012025187339777035,0.0009332672249000919
3,25,1.000512340174879,-0.00012512431097236857,0.0010267118081811603
3,26,1.0005087112585502,-0.0001298050081225713,0.001123763333169259
3,27,1.0005041024960193,-0.0001342864608260182,0.001224274349406523
3,28,1.0004984702214768,-0.00013856067890368774,0.0013280915598285535
3,29,1.000491772861242,-0.0001426192745617883,0.00143505548052679
3,30,1.0004839710424354,-0.0001464535663927109,0.0015450002912870443
3,31,1.0004750277155545,-0.00015005469639120831,0.0016577536314730718
3,32,1.0004649082898145,-0.00015341375835925788,0.0017731366063622053
3,33,1.000453580774752,-0.00015652193625648877,0.0018909637611002066
3,34,1.000441015927427,-0.00015937065154919983,0.0020110432789492844
3,35,1.000427187398691,-0.0001619517185427941,0.0021331771651178773
3,36,1.0004120718782075,-0.00016425750702838858,0.0022571616649826945
3,37,1.0003956492315407,-0.00016628111138755608,0.0023827876830024787
3,38,1.0003779026293023,-0.00016801652560781142,0.00250984144333603
3,39,1.000358818661473,-0.00016945882342475055,0.0026381051641160506
3,40,1.0003383874371954,-0.00017060434314784514,0.0027673579784207184
3,41,1.0003166026629624,-0.00017145087649839366,0.002897376880201948
3,42,1.0002934616998427,-0.00017199786120052692,0.003027937919993312
3,43,1.0002689655924961,-0.00017224657689395468,0.003158817435798573
3,44,1.0002431190710386,-0.00017220034446127318,0.0032897935355787234
3,45,1.0002159305183513,-0.00017186472878428144,0.0034206476250345456
3,46,1.000187411904351,-0.00017124774562244936,0.003551166188663548
3,47,1.0001575786796604,-0.00017036007336605898,0.0036811426277036634
3,48,1.000126449630653,-0.00016921527128743575,0.003810379354713647
3,49,1.0000940466880486,-0.0001678300061672071,0.003938689960562841
3,50,1.000060394691423,-0.0001662242902935483,0.004065901645885191
3,51,1.0000255211013294,-0.00016442173433599345,0.004191857747993124
3,52,0.9999894556615323,-0.00016244982004332207,0.004316420548593578
3,53,0.999952230002168,-0.00016034019855717195,0.00443947421259512
3,54,0.9999138771860143,-0.0001581290219968708,0.00456092803825179
3,55,0.9998744311870675,-0.00015585731727835257,0.004680719893580878
3,56,0.9998339263024968,-0.0001535714135414932,0.00479882001662094
3,57,0.9997923964843975,-0.00015132343650172208,0.004915235086149309
3,58,0.9997498745899589,-0.0001491718861906753,0.005030012741248345
3,59,0.9997063915318746,-0.000147182317360453,0.005143246497178176
3,60,0.9996619753230283,-0.0001454281459941929,0.00525508124173379
3,61,0.9996166499898237,-0.00014399160938069534,0.005365719312300164
3,62,0.9995704343402666,-0.0001429649127995365,0.005475427350505678
3,63,0.9995233405492594,-0.00014245160159652328,0.0055845440029243035
3,64,0.999475372533977,-0.0001425682050486914,0.0056934886870598335
3,65,0.999426524062929,-0.00014344620665794158,0.0058027715794653975
3,66,0.9993767765499117,-0.00014523440615094642,0.005913005080836641
3,67,0.9993260964465689,-0.00014810175051453855,0.006024917029767615
3,68,0.9992744321495284,-0.00015224072675154023,0.006139365974053598
3,69,0.9992217102882179,-0.00015787142722688887,0.006257358921168258
3,70,0.9991678312518733,-0.00016524642166768698,0.006380071956980931
3,71,0.9991126637450078,-0.00017465659859037624,0.006508874351957499
3,72,0.9990560381351893,-0.00018643817605690685,0.006645356662392057
3,73,0.9989977382561241,-0.00020098112960127563,0.006791363710645996
3,74,0.9989374912708654,-0.0002187393485799139,0.006949033129051899
3,75,0.9988749550452503,-0.00024024291720956307,0.007120840714799697
3,76,0.9988097023618301,-0.0002661130318738954,0.007309653551078766
3,77,0.9987412010530393,-0.0002970802255513139,0.007518792655285278
3,78,0.9986687888923179,-0.00033400679117936126,0.007752106531069136
3,79,0.9985916416461568,-0.0003779146073957954,0.008014058126666822
3,80,0.9985087322052592,-0.00043002000944528617,0.008309827226146984
3,81,0.9984187779046536,-0.0004917779748381019,0.008645431826622712
3,82,0.9983201721344478,-0.0005649387833309311,0.009027871428251644
3,83,0.9982108947332962,-0.0006516215800330366,0.009465297046066138
3,84,0.998088393470167,-0.0007544110572678936,0.009967211557401165
3,85,0.9979494254831089,-0.0008764859573868282,0.010544705426391805
3,86,0.9977898425696494,-0.0010217914261403727,0.011210728916948388
3,87,0.9976042964017555,-0.0011952714003069078,0.011980398353095289
3,88,0.9973858279122045,-0.001403181484147045,0.012871317029765652
3,89,0.9971252864616788,-0.00165350447997044,0.013903860700114729
3,90,0.9968104957808905,-0.0019564813846978386,0.015101298233498773
3,91,0.9964250398804536,-0.00232522545322093,0.016489450179366462
3,92,0.9959464797425068,-0.002776234032375352,0.018095194038259328
3,93,0.995343737883808,-0.0033291421678562534,0.01994223016269793
3,94,0.9945733660086147,-0.00400363918653538,0.02204039862047498
3,95,0.9935747305302535,-0.004807101435120559,0.024359761996095724
3,96,0.9922659842806657,-0.005692646452868932,0.02676845277768202
3,97,0.9905504144458707,-0.006422097709969978,0.028885662621753
3,98,0.9883701097039959,-0.006122205828851101,0.02975533477542525
3,99,0.9859145075019742,-0.0019071228325889824,0.027290204993688363
3,100,0.9840640580055838,0.014733189285281088,0.018315782342027014
3,101,0.9863169557221534,0.06151312558600453,0.004422503252113942
4,1,1.000459532060868,4.4513008211945605e-6,-3.902040028143634e-7
4,2,1.0004596034884112,7.857099947370478e-6,-1.6805314382251837e-6
4,3,1.000460529452086,5.796499937151607e-6,-1.985173122651799e-6
4,4,1.0004621817350197,-1.3317974080642062e-7,4.495940157397177e-7
4,5,1.00046445981955,-8.72334777470053e-6,6.893909595540457e-6
4,6,1.0004672638700525,-1.9083124908543656e-5,1.827546425643123e-5
4,7,1.0004704919279492,-3.05763368467752e-5,3.525642253602859e-5
4,8,1.0004740415935542,-4.2757961208742155e-5,5.829108720649288e-5
4,9,1.000477812402394,-5.5320231584234576e-5,8.767402805461907e-5
4,10,1.0004817075715489,-6.805158559528345e-5,0.00012357976351971554
4,11,1.0004856349365068,-8.08070746703165e-5,0.0001660939019857973
4,12,1.0004895072610738,-9.348757467076386e-5,0.0002152369944534188
4,13,1.0004932421490207,-0.00010602532522415233,0.00027098214298692727
4,14,1.0004967617380955,-0.00011837389317599771,0.000333267992683488
4,15,1.000499992296704,-0.00013050119720693756,0.0004020079568917577
4,16,1.0005028637987934,-0.0001423846480516124,0.000477096883578545
4,17,1.0005053095185468,-0.00015400775588718228,0.0005584155746211203
4,18,1.0005072656688336,-0.00016535776111661674,0.0006458339789672827
4,19,1.0005086710921463,-0.00017642398401171105,0.0007392131676970585
4,20,1.0005094670086598,-0.0001871966832097542,0.000838406672028341
4,21,1.0005095968185067,-0.0001976662773753189,0.00094326111928273
4,22,1.0005090059568746,-0.00020782282840636716,0.0010536166121083328
4,23,1.0005076417955336,-0.0002176557148452111,0.001169306693646456
4,24,1.0005054535881994,-0.0002271534452465403,0.001290158268102578
4,25,1.0005023924526835,-0.00023630357586179902,0.0014159912719624364
4,26,1.0004984113875708,-0.0002450927073668305,0.001546618422020867
4,27,1.0004934653165067,-0.0002535065425330313,0.0016818448123005303
4,28,1.00048751115854,-0.0002615299919469892,0.00182146766011141
4,29,1.000480507917807,-0.0002691473184092831,0.001965275963245569
4,30,1.0004724167916603,-0.00027634231329265257,0.002113050351826644
4,31,1.000463201290628,-0.00028309849982282757,0.0022645628937880123
4,32,1.0004528273698068,-0.0002893993596035041,0.002419577125523627
4,33,1.0004412635650197,-0.000295228579438893,0.0025778480675004494
4,34,1.0004284811337325,-0.0003005703162195191,0.002739122486756692
4,35,1.0004144541938822,-0.00030540947787955963,0.002903139168983264
4,36,1.0003991598609165,-0.00030973201883949985,0.0030696294535579633
4,37,1.000382578375957,-0.00031352524835849684,0.003238317798344265
4,38,1.0003646932256742,-0.0003167781505156381,0.003408922619443143
4,39,1.0003454912465077,-0.00031948171447020326,0.0035811571776477287
4,40,1.0003249627141368,-0.00032162927395583787,0.0037547307486436973
4,41,1.0003031014105768,-0.0003232168549239342,0.0039293498544039065
4,42,1.0002799046701532,-0.0003242435306495285,0.004104719784609645
4,43,1.0002553733965087,-0.00032471178368649194,0.004280546192145052
4,44,1.000229512052308,-0.0003246278746266759,0.0044565369833012795
4,45,1.0002023286135817,-0.0003240022178718617,0.004632404294554793
4,46,1.0001738344908278,-0.0003228497654399758,0.004807866768559253
4,47,1.0001440444085932,-0.00032119040034340524,0.004982651930756019
4,48,1.0001129762460912,-0.000319049342202606,0.005156498871749715
4,49,1.0000806508302604,-0.00031645756863235097,0.005329161048779481
4,50,1.0000470916841533,-0.0003134522574639539,0.0055004094048604615
4,51,1.0000123247215351,-0.0003100772562101657,0.005670035634095453
4,52,0.9999763778906392,-0.0003063835872246317,0.005837855786631351
4,53,0.9999392807570303,-0.0003024299989520161,0.0060037140612360035
4,54,0.9999010640280981,-0.0002982835763919528,0.006167486976053614
4,55,0.9998617590074808,-0.00029402042663152664,0.006329087790614206
4,56,0.9998213969806913,-0.0002897264589064076,0.006488471369806083
4,57,0.9997800085174791,-0.00028549828243093375,0.006645639395232886
4,58,0.9997376226895818,-0.00028144424999479494,0.006800646118976686
4,59,0.9996942661848612,-0.0002776856804939319,0.006953604606742918
4,60,0.9996499623117738,-0.0002743582998533665,0.0071046936751813896
4,61,0.999604729867857,-0.0002716139468205779,0.007254165523453991
4,62,0.9995585818582029,-0.00026962259845978744,0.0074023542805791796
4,63,0.9995115240260694,-0.00026857477969697814,0.0075496855358977545
4,64,0.9994635531684778,-0.0002686844324245772,0.007696687099475482
4,65,0.9994146551808709,-0.00027019233263730127,0.007844001144079075
4,66,0.9993648027825213,-0.0002733701591685748,0.007992398010756964
4,67,0.9993139528383919,-0.0002785253354724581,0.008142791933651954
4,68,0.9992620431952398,-0.00028600678676832703,0.00829625901183422
4,69,0.9992089889029007,-0.0002962117801353829,0.00845405780922082
4,70,0.9991546776840762,-0.0003095940450359303,0.008617652965305624
4,71,0.9990989644522011,-0.00032667340888401983,0.008788742343774553
4,72,0.9990416646523674,-0.00034804722724280626,0.00896928815986774
4,73,0.9989825461093222,-0.0003744039456828883,0.009161552772656918
4,74,0.9989213190119169,-0.00040653920192718643,0.00936813962743157
4,75,0.9988576235269486,-0.0004453749706716496,0.00959204018219515
4,76,0.998791014426583,-0.0004919823733510602,0.009836687288821427
4,77,0.9987209418979053,-0.0005476089343702425,0.010106015929604516
4,78,0.9986467274945806,-0.0006137112712141214,0.010404531583668497
4,79,0.9985675338314647,-0.0006919944775475716,0.010737386909451412
4,80,0.9984823262252454,-0.0007844598030431483,0.011110466292135312
4,81,0.9983898238557236,-0.0008934626657407699,0.011530477854435506
4,82,0.9982884372583067,-0.001021783528995452,0.012005050184898112
4,83,0.9981761878129325,-0.0011727146752593446,0.01254282959900413
4,84,0.9980506034198271,-0.0013501661974935786,0.013153568069189566
4,85,0.997908582428009,-0.0015587941129253059,0.013848185307637212
4,86,0.997746215102372,-0.0018041511796145567,0.014638772514353655
4,87,0.9975585481531342,-0.0020928540724833395,0.01553848066981373
4,88,0.9973392732851085,-0.002432742887244791,0.01656118581380413
4,89,0.9970803158627256,-0.002832966519138728,0.017720735145598392
4,90,0.9967712972705496,-0.0033038279926628435,0.01902940372785167
4,91,0.9963988521040267,-0.003855991416195461,0.020494864525764833
4,92,0.9959458209890302,-0.00449810433713172,0.022114332888832553
4,93,0.9953904724217592,-0.00523057637840086,0.023863306966141747
4,94,0.9947062962734203,-0.006030046814947893,0.025673941275429345
4,95,0.9938639906685081,-0.00681110423459767,0.02739379366307146
4,96,0.9928400889092894,-0.007332013503361719,0.02870934295641281
4,97,0.9916432870989524,-0.006964103901770972,0.029016461034056674
4,98,0.9903807473478166,-0.004150082206858059,0.02725851925334045
4,99,0.9893862760485499,0.004706379648048916,0.021969400773730885
4,100,0.9893548637829508,0.026684969462986072,0.012438226418775332
4,101,0.9918989615790054,0.07007621567144683,0.0025526365874749325
5,1,1.0004565664346114,4.502064798176629e-6,-1.0819553115514038e-7
5,2,1.0004569988144738,7.3773985418512024e-6,1.252599621526804e-7
5,3,1.0004581338979348,2.7892593977013082e-6,2.581074319487357e-6
5,4,1.0004598740253323,-7.128590471518095e-6,8.900359373945412e-6
5,5,1.0004621330217056,-2.079341618898562e-5,2.032232048500329e-5
5,6,1.0004648256785575,-3.7028569324559534e-5,3.778135358704081e-5
5,7,1.0004678656975703,-5.497059085878027e-5,6.196974320276916e-5
5,8,1.0004711659960015,-7.399433510461989e-5,9.338398806090697e-5
5,9,1.0004746399361635,-9.365185841284622e-5,0.00013236332916558645
5,10,1.0004782025504984,-0.00011362445312527033,0.0001791228898651517
5,11,1.0004817714227752,-0.00013368637931340273,0.00023378128040470685
5,12,1.0004852671870548,-0.0001536781246498352,0.0002963830985232027
5,13,1.0004886137200901,-0.00017348697794510783,0.00036691650964694645
5,14,1.0004917381254717,-0.00019303302450682081,0.00044532689693653954
5,15,1.0004945705929424,-0.0002122590859657936,0.0005315270267172446
5,16,1.0004970441960408,-0.00023112350432758774,0.0006254047077291013
5,17,1.0004990946690382,-0.0002495949709168963,0.0007268282368088224
5,18,1.000500660191329,-0.0002676488266451166,0.0008356504009391367
5,19,1.0005016811936025,-0.0002852644241208389,0.0009517111275403838
5,20,1.000502100196085,-0.0003024232596330385,0.0010748393696589076
5,21,1.0005018616808308,-0.00031910766653469664,0.001204854172946341
5,22,1.0005009120008883,-0.00033529992089233315,0.001341565388007387
5,23,1.0004991993231929,-0.0003509816523373004,0.0014847738862064507
5,24,1.0004966736054204,-0.0003661334831252166,0.0016342716661610118
5,25,1.0004932866016802,-0.00038073483976541327,0.0017898416586276304
5,26,1.0004889918966426,-0.0003947638970177248,0.001951257570340686
5,27,1.0004837449622663,-0.00040819762499463423,0.0021182835475921746
5,28,1.000477503236806,-0.00042101191811584794,0.0022906739709793516
5,29,1.0004702262199212,-0.0004331817902672474,0.002468173148927001
5,30,1.0004618755838885,-0.0004446816246995527,0.0026505152022649513
5,31,1.000452415294459,-0.000455485470010966,0.0028374239021690126
5,32,1.0004418117416938,-0.00046556737574346933,0.0030286127401303454
5,33,1.0004300338740264,-0.0004749017624547302,0.00322378499143489
5,34,1.0004170533361603,-0.0004834638222711541,0.003422634040151322
5,35,1.0004028446037285,-0.0004912299464834579,0.003624843728820921
5,36,1.0003873851155853,-0.000498178177376957,0.0038300889916521442