TITLE="CMs_NON_Orthogonal Re = 100.0"
VARIABLES = X,Y,Rho,U,V
ZONE
I = 101	J = 101
F=POINT
1,1,1.0004619751690942,-2.5158091440905716e-7,-2.1228616413717454e-7
1,2,1.00046182780374,5.515449037161447e-8,-1.2976100423330534e-6
1,3,1.0004626720530805,9.413184910004766e-8,-2.8499836458106585e-6
1,4,1.0004646496794858,-7.298735882307791e-8,-4.173396893964081e-6
1,5,1.0004676493525653,-3.5817473529885547e-7,-4.823981423054276e-6
1,6,1.0004714881634165,-7.082765137111493e-7,-4.5471856405346e-6
1,7,1.0004759786937378,-1.093048866341623e-6,-3.2019193892905477e-6
1,8,1.0004809483969954,-1.4949502117627724e-6,-7.138106635054688e-7
1,9,1.0004862434248867,-1.9035684681615909e-6,2.9514782776605073e-6
1,10,1.0004917276180918,-2.3126386036762652e-6,7.804097322981895e-6
1,11,1.000497280156261,-2.7183757032867526e-6,1.383930356290471e-5
1,12,1.0005027930561554,-3.1185074195097523e-6,2.1043362620797042e-5
1,13,1.0005081689054707,-3.5116908160888422e-6,2.9396993958776303e-5
1,14,1.0005133189380002,-3.897153361047576e-6,3.8877715547955625e-5
1,15,1.0005181614466483,-4.274465643225761e-6,4.946108310404478e-5
1,16,1.0005226204994058,-4.64339685397204e-6,6.112163085676872e-5
1,17,1.0005266249122036,-5.0038206515408194e-6,7.383321208972989e-5
1,18,1.0005301074376225,-5.3556550081923295e-6,8.756935243725778e-5
1,19,1.0005330041310685,-5.698822684484353e-6,0.00010230321174532239
1,20,1.0005352538646886,-6.033226948170275e-6,0.00011800768810588577
1,21,1.0005367979621451,-6.358735973015117e-6,0.00013465522414498563
1,22,1.000537579934682,-6.675174734209795e-6,0.00015221781133401322
1,23,1.0005375453001397,-6.982320461871944e-6,0.00017066674215434583
1,24,1.0005366414723573,-7.279902240331702e-6,0.00018997258442760167
1,25,1.0005348177081506,-7.567601869678739e-6,0.0002101049280536075
1,26,1.0005320251037828,-7.845057403544737e-6,0.0002310323637968229
1,27,1.0005282166315346,-8.111866878485682e-6,0.0002527222496158106
1,28,1.000523347211039,-8.367594092040509e-6,0.0002751407123354333
1,29,1.0005173738080018,-8.611774052844807e-6,0.00029825244778784125
1,30,1.0005102555566356,-8.843920226187597e-6,0.000322020756453126
1,31,1.0005019538995301,-9.063531174387062e-6,0.00034640738666925924
1,32,1.0004924327422615,-9.270098912287047e-6,0.0003713726118957797
1,33,1.0004816586170115,-9.463116474884398e-6,0.0003968751238910093
1,34,1.0004696008530598,-9.642087193084938e-6,0.00042287215753345446
1,35,1.000456231748623,-9.806533027041852e-6,0.00044931943960719965
1,36,1.000441526742249,-9.956004631117144e-6,0.00047617136605029
1,37,1.0004254645782644,-1.0090090320304614e-5,0.0005033810111122789
1,38,1.0004080274647165,-1.0208426805198662e-5,0.0005309003610353089
1,39,1.0003892012182702,-1.0310708666078459e-5,0.0005586803875558377
1,40,1.0003689753947342,-1.0396699645530234e-5,0.0005866713411778052
1,41,1.0003473433996182,-1.0466242509734373e-5,0.0006148228922301576
1,42,1.0003243025776916,-1.0519270813175496e-5,0.0006430844860834363
1,43,1.0002998542759254,-1.0555819066138853e-5,0.0006714055543333837
1,44,1.0002740038791673,-1.057603494230732e-5,0.0006997359336862924
1,45,1.0002467608129557,-1.0580189750058765e-5,0.0007280261495218173
1,46,1.0002181385132989,-1.0568691170491542e-5,0.0007562279000002453
1,47,1.0001881543578617,-1.054209417291166e-5,0.0007842944145819136
1,48,1.0001568295589365,-1.050111455341761e-5,0.0008121810055566536
1,49,1.000124189012623,-1.0446640660171094e-5,0.0008398455055080674
1,50,1.0000902611051492,-1.0379748283747714e-5,0.0008672488904351772
1,51,1.0000550774705677,-1.0301713890188633e-5,0.0008943558032338772
1,52,1.0000186727012002,-1.0214031822658206e-5,0.0009211352565353272
1,53,0.9999810840045256,-1.0118430212209214e-5,0.0009475612548029365
1,54,0.9999423508079898,-1.0016892026315793e-5,0.0009736135918403675
1,55,0.9999025143042923,-9.911675500957683e-6,0.0009992785930959941
1,56,0.9998616169380803,-9.80534137701767e-6,0.0010245500336782132
1,57,0.9998197018244223,-9.700780639447458e-6,0.0010494300363297843
1,58,0.9997768120983532,-9.601251413811941e-6,0.0010739301523467323
1,59,0.9997329901819854,-9.510418126257393e-6,0.0010980724713541914
1,60,0.9996882769649827,-9.432403130590974e-6,0.0011218909320424401
1,61,0.9996427108783661,-9.371843285649354e-6,0.0011454327300735455
1,62,0.9995963268509345,-9.333963658561059e-6,0.0011687599612463975
1,63,0.9995491551175348,-9.324660217620069e-6,0.0011919514575195584
1,64,0.9995012198570763,-9.350606246089405e-6,0.0012151049168274317
1,65,0.9994525376121349,-9.419373786831976e-6,0.0012383393601038727
1,66,0.9994031154487587,-9.5395882292462e-6,0.0012617979765632025
1,67,0.9993529487802798,-9.721107010349626e-6,0.0012856514855847081
1,68,0.9993020187815902,-9.97524513067436e-6,0.0013101020348280073
1,69,0.9992502892723872,-1.0315038620778329e-5,0.0013353878839019787
1,70,0.9991977029423851,-1.0755575152207684e-5,0.0013617888531144648
1,71,0.9991441767231679,-1.1314384207234738e-5,0.0013896329444497177
1,72,0.9990895960902464,-1.2011925662057766e-5,0.001419304081954854
1,73,0.9990338079776657,-1.2872172961822253e-5,0.0014512515914004564
1,74,0.9989766119366597,-1.3923345079649204e-5,0.0014860013560097733
1,75,0.9989177490128224,-1.5198792719740071e-5,0.0015241695681949394
1,76,0.9988568877076399,-1.6738119267767193e-5,0.0015664790572325446
1,77,0.9987936061326016,-1.858856369577722e-5,0.0016137795629582582
1,78,0.9987273692386872,-2.080677491552445e-5,0.0016670721033145487
1,79,0.998657499552033,-2.3461055417665077e-5,0.001727539535477358
1,80,0.9985831393718521,-2.663430257421751e-5,0.0017965839155968837
1,81,0.9985032015279586,-3.0427845269610967e-5,0.0018758740498624452
1,82,0.9984163047524982,-3.4966619875811e-5,0.0019674049805705053
1,83,0.9983206879332452,-4.040617627431392e-5,0.0020735753167034463
1,84,0.9982140950770272,-4.694246550194422e-5,0.0021972869471621865
1,85,0.9980936186975224,-5.482565205998927e-5,0.0023420784241576114
1,86,0.9979554831597373,-6.438019775592094e-5,0.002512303562470372
1,87,0.9977947389369275,-7.60345248621707e-5,0.0027133791449923087
1,88,0.9976048214376714,-9.036612935298347e-5,0.002952131699904975
1,89,0.9973768972845394,-0.00010817164006896078,0.003237299728905973
1,90,0.9970988662141155,-0.00013057900278735246,0.003580273279424199
1,91,0.9967537830390859,-0.00015923202723544018,0.003996220132968191
1,92,0.996317261622301,-0.00019660461461144446,0.0045058407501857144
1,93,0.9957530018858421,-0.00024655412805992525,0.005138197663580815
1,94,0.9950046569558837,-0.0003153337389964011,0.005935403682918332
1,95,0.9939800690839673,-0.0004135093491914731,0.006960629663136938
1,96,0.9925182482374516,-0.0005596773327145873,0.008311977900529469
1,97,0.9903130690950009,-0.0007873393301460325,0.010145800894726982
1,98,0.9867141117631302,-0.0011504003094795297,0.012705450792695746
1,99,0.9801505001901882,-0.001628305362978744,0.016251605119883654
1,100,0.9667504744404102,-0.0007835655365021622,0.01986162831747002
1,101,0.9343875325180985,0.024601629440881647,0.009808720440543494
2,1,1.000462113174108,1.7816664048993005e-6,-5.150801786056502e-7
2,2,1.0004619690878966,3.3155987036512312e-6,-2.8125684016149802e-6
2,3,1.0004628003145233,3.31610041104478e-6,-5.619347059513713e-6
2,4,1.000464573154947,2.199904607584604e-6,-7.559004366884796e-6
2,5,1.0004671997717147,3.836045983138642e-7,-7.664082428361439e-6
2,6,1.0004705492669599,-1.8495323299592221e-6,-5.2979793009950534e-6
2,7,1.0004744764389821,-4.320835187122662e-6,-6.406438494065046e-8
2,8,1.0004788381968017,-6.918803320677462e-6,8.271983068984567e-6
2,9,1.000483500499996,-9.573551230714914e-6,1.9837243382927168e-5
2,10,1.0004883403942662,-1.2241047553503184e-5,3.468862512791953e-5
2,11,1.0004932458524145,-1.4893498287556923e-5,5.283702382523543e-5
2,12,1.000498114750761,-1.7513402070096292e-5,7.4263379056707e-5
2,13,1.0005028535866065,-2.0089810224704894e-5,9.892899774551857e-5
2,14,1.000507376210277,-2.261593249139866e-5,0.000126782523895357
2,15,1.000511602678647,-2.5087582149690435e-5,0.000157764265134549
2,16,1.0005154582698828,-2.7502154420877895e-5,0.00019180916557567343
2,17,1.0005188726589727,-2.9857950634541323e-5,0.000228848454308887
2,18,1.000521779245661,-3.215372964356444e-5,0.0002688108073200193
2,19,1.0005241146150066,-3.438841136128495e-5,0.0003116227744177287
2,20,1.0005258181162466,-3.6560882933519234e-5,0.0003572091126468422
2,21,1.000526831540367,-3.866987552939478e-5,0.00040549266192353473
2,22,1.0005270988849815,-4.071388980300553e-5,0.0004563943124330373
2,23,1.000526566190443,-4.2691155824371095e-5,0.0005098326516508679
2,24,1.0005251814396787,-4.4599617275025884e-5,0.0005657237933397697
2,25,1.0005228945088238,-4.643693351705953e-5,0.0006239809586368286
2,26,1.0005196571642732,-4.820049459278809e-5,0.000684514284402815
2,27,1.0005154230954187,-4.9887446325104356e-5,0.0007472304252363545
2,28,1.0005101479809033,-5.149472300667374e-5,0.0008120324063055489
2,29,1.0005037895789797,-5.3019086509607585e-5,0.0008788192965288577
2,30,1.0004963078413045,-5.445717042086779e-5,0.0009474861453915159
2,31,1.000487665041422,-5.5805528807822636e-5,0.0010179237595423583
2,32,1.0004778259182676,-5.7060688720203954e-5,0.0010900187503227053
2,33,1.0004667578261879,-5.8219206368155704e-5,0.0011636534368776208
2,34,1.0004544308924808,-5.927772628130475e-5,0.0012387060243740828
2,35,1.0004408181739004,-6.02330435283714e-5,0.001315050651627626
2,36,1.0004258958136658,-6.108216835236594e-5,0.001392557715904662
2,37,1.000409643190165,-6.182239335564503e-5,0.001471094079696227
2,38,1.0003920430593936,-6.245136258524723e-5,0.0015505235549854819
2,39,1.0003730816819787,-6.296714269040907e-5,0.0016307072811030283
2,40,1.0003527489373263,-6.336829549206022e-5,0.001711504378760226
2,41,1.0003310384153985,-6.365395220149653e-5,0.0017927725085692626
2,42,1.000307947489215,-6.382388864909019e-5,0.0018743687029122815
2,43,1.0002834773582432,-6.387860189066593e-5,0.0019561501128540965
2,44,1.000257633066431,-6.381938763366839e-5,0.0020379750243638456
2,45,1.000230423484692,-6.364841907841375e-5,0.002119703800472133
2,46,1.0002018612623638,-6.336882678774093e-5,0.002201200088139313
2,47,1.000171962737058,-6.298478054443744e-5,0.0022823319634282437
2,48,1.0001407478082547,-6.250157310106101e-5,0.002362973337374721
2,49,1.000108239763537,-6.192570732323201e-5,0.0024430053157944824
2,50,1.0000744650636724,-6.126498708782772e-5,0.002522317818174444
2,51,1.0000394530746464,-6.052861420590004e-5,0.0026008111720196643
2,52,1.000003235753574,-5.97272924068113e-5,0.0026783979697716735
2,53,0.9999658472753511,-5.8873341727932623e-5,0.002755004932315552
2,54,0.9999273236073574,-5.798082530916969e-5,0.0028305750475219513
2,55,0.9998877020170533,-5.706569341660557e-5,0.002905069761298216
2,56,0.9998470205195279,-5.614594805835997e-5,0.002978471470549712
2,57,0.9998053172465687,-5.524183503595142e-5,0.0030507861364729356
2,58,0.9997626297429313,-5.437606871986291e-5,0.003122046248579608
2,59,0.9997189941661879,-5.357409916313563e-5,0.003192314008506961
2,60,0.9996744443925237,-5.286442954816844e-5,0.0032616849457647286
2,61,0.9996290109967071,-5.2278997416331924e-5,0.0033302918976633863
2,62,0.9995827201021882,-5.18536315116382e-5,0.0033983095492229652
2,63,0.9995355920567512,-5.1628603046809965e-5,0.003465959544944287
2,64,0.9994876399182575,-5.1649288746907535e-5,0.0035335163556049288
2,65,0.9994388676858561,-5.1966972088021545e-5,0.0036013140133941434
2,66,0.9993892682416387,-5.263980819657893e-5,0.003669753892606778
2,67,0.9993388209066065,-5.3733989918166436e-5,0.003739313780042023
2,68,0.9992874885430649,-5.5325152790033456e-5,0.003810558418084899
2,69,0.9992352140573206,-5.7500073188229764e-5,0.0038841519361731557
2,70,0.9991819161798582,-6.035871673021372e-5,0.00396087237986498
2,71,0.9991274842964266,-6.401671779703767e-5,0.0040416289834119485
2,72,0.9990717721147744,-6.860837942820441e-5,0.004127482457994272
2,73,0.9990145898082868,-7.429031921061666e-5,0.004219669260688546
2,74,0.998955694263139,-8.124590725845166e-5,0.004319630247468305
2,75,0.998894776846709,-8.969070227424806e-5,0.004429045138340369
2,76,0.9988314480458501,-9.987913865924924e-5,0.0045498734609039915
2,77,0.99876521800007,-0.00011211282444210833,0.004684404112725761
2,78,0.9986954717699769,-0.00012675091591916583,0.0048353147360767285
2,79,0.9986214376414726,-0.00014422324060324912,0.005005744218613919
2,80,0.9985421463285634,-0.0001650470810275761,0.0051993805862550115
2,81,0.9984563779558453,-0.00018984895676174804,0.005420569674473495
2,82,0.9983625926835543,-0.00021939329877259644,0.005674449066475021
2,83,0.998258838874232,-0.0002546208435950144,0.0059671165817554795
2,84,0.9981426302674166,-0.0002967008967285826,0.00630584247293769
2,85,0.9980107792838078,-0.00034710378421189125,0.006699342281585263
2,86,0.9978591674493438,-0.00040770305880880346,0.00715812933363224
2,87,0.9976824232559487,-0.00048092233578319964,0.007694979116726531
2,88,0.9974734611421511,-0.0005699498861683704,0.008325544408574134
2,89,0.9972228060248188,-0.000679057581711523,0.009069181905714778
2,90,0.9969175783377431,-0.0008140819020514979,0.009950062193597467
2,91,0.996539924438441,-0.000983157734919445,0.01099865607989336
2,92,0.9960645132683288,-0.0011978417322998486,0.012253660347397595
2,93,0.9954544067403674,-0.0014748079115006751,0.013764291864969974
2,94,0.9946540050371516,-0.0018382507462347852,0.015592300335080913
2,95,0.9935765749998652,-0.0023225474956947603,0.017811113327569874
2,96,0.9920816532402824,-0.0029715308224090575,0.020492833450751535
2,97,0.9899348258135553,-0.0038146377407874683,0.023650232987973464
2,98,0.9867502779877587,-0.004716859904620145,0.02701507556160963
2,99,0.9820163421333832,-0.004560772583452289,0.029247473766337607
2,100,0.975835615188998,0.002733156063868622,0.025668982346229947
2,101,0.9728028509523315,0.04693547110423791,0.008072572862628987
3,1,1.0004612649181557,2.3865921959277458e-6,-5.516657960551316e-7
3,2,1.0004611348720638,5.181719451825253e-6,-2.793151860337566e-6
3,3,1.000461962993794,4.582387546792475e-6,-4.985799813515065e-6
3,4,1.0004636251420678,1.5641632003287548e-6,-5.4481805401310825e-6
3,5,1.0004660203761004,-3.065541280169483e-6,-2.986966356984136e-6
3,6,1.0004690362003483,-8.721149641374927e-6,3.2392346165778442e-6
3,7,1.0004725528049097,-1.5003092574975123e-5,1.380052463947401e-5
3,8,1.0004764498644512,-2.1645122801452475e-5,2.9064668140175952e-5
3,9,1.000480611268909,-2.8471174892424116e-5,4.925333749423239e-5
3,10,1.0004849274842547,-3.536504341248463e-5,7.448508041300593e-5
3,11,1.0004892963156153,-4.2250095468188365e-5,0.0001048063018689032
3,12,1.000493622780447,-4.9075865138862486e-5,0.00014021343296924561
3,13,1.000497818552529,-5.580918026126253e-5,0.00018066821246885041
3,14,1.0005018012432692,-6.242824914328744e-5,0.00022610847465414122
3,15,1.0005054936606157,-6.891868870502174e-5,0.00027645533204841637
3,16,1.000508823118662,-7.527083783907874e-5,0.0003316182372742405
3,17,1.0005117208272827,-8.147793102467648e-5,0.00039149813177272847
3,18,1.0005141213747295,-8.753485430018781e-5,0.0004559896626345885
3,19,1.0005159623001127,-9.343729978719388e-5,0.0005249823323691071
3,20,1.0005171837527453,-9.91811959534122e-5,0.0005983613099829554
3,21,1.000517728227493,-0.00010476233054719602,0.0006760076044325602
3,22,1.000517540370557,-0.00011017610970726601,0.0007577982006045908
3,23,1.0005165668441651,-0.00011541741429183369,0.0008436057824795896
3,24,1.0005147562456749,-0.0001204805266552516,0.0009332985756141383
3,25,1.000512059070561,-0.00012535910908587655,0.0010267398997676899
3,26,1.0005084277165124,-0.00013004622099707603,0.0011237879250502465
3,27,1.0005038165191473,-0.00013453436561140444,0.0012242952097583722
3,28,1.0004981818180918,-0.00013881555986561885,0.0013281084888874114
3,29,1.0004914820446147,-0.00014288142284853568,0.00143506828960269
3,30,1.0004836778307369,-0.00014672327970210495,0.0015450088252965898
3,31,1.0004747321313066,-0.00015033227847908697,0.0016577577482558786
3,32,1.0004646103598176,-0.00015369951840518386,0.0017731361985009178
3,33,1.000453280529476,-0.0001568161880358123,0.0018909587356002744
3,34,1.0004407134009188,-0.00015967371244440232,0.002011033578321513
3,35,1.0004268826279124,-0.00016226390834381057,0.0021331627474281746
3,36,1.000411764902932,-0.0001645791465668218,0.0022571425241332877
3,37,1.0003953400936434,-0.00016661252095636736,0.002382763829151546
3,38,1.0003775913726587,-0.00016835802321913084,0.002509812922304917
3,39,1.0003585053312116,-0.00016981072285876536,0.0026380720381903424
3,40,1.0003380720796131,-0.0001709669518533741,0.00276732034481871
3,41,1.0003162853247525,-0.0001718244932992483,0.0028973348522891326
3,42,1.0002931424280408,-0.0001723827738768417,0.003027891644752237
3,43,1.0002686444336986,-0.00017264305959588567,0.00315876707551747
3,44,1.0002427960713969,-0.00017260865503330246,0.003289739284266214
3,45,1.0002156057227864,-0.00017228510596290495,0.003420589690666846
3,46,1.0001870853566168,-0.00017168040619527846,0.003551104808485919
3,47,1.0001572504215706,-0.0001708052092593598,0.0036810780511498946
3,48,1.0001261197022182,-0.00016967304668114835,0.003810311857531896
3,49,1.0000937151267277,-0.00016830055461052723,0.003938619828542307
3,50,1.0000600615323534,-0.00016670771192820418,0.004065829187736946
3,51,1.0000251863765999,-0.00016491809320463995,0.004191783280050567
3,52,0.9999891194005195,-0.00016295914159604108,0.004316344406356532
3,53,0.9999518922308337,-0.00016086246733460738,0.004439396736605985
3,54,0.9999135379273519,-0.00015866417960417177,0.004560849584186973
3,55,0.9998740904604212,-0.00015640526062613892,0.004680640819532387
3,56,0.9998335841241248,-0.00015413199346210314,0.0047987406915880985
3,57,0.9997920528668001,-0.00015189645670928356,0.004915155878993448
3,58,0.9997495295425577,-0.00014975710267843564,0.005029934027387414
3,59,0.9997060450603366,-0.00014777943818926383,0.005143168649514317
3,60,0.9996616274300565,-0.0001460368315436924,0.0052550046352951305
3,61,0.9996163006744555,-0.00014461147299333322,0.00536564431747873
3,62,0.9995700835987731,-0.00014359552185836015,0.005475354335301888
3,63,0.9995229883743852,-0.00014309247893750117,0.005584473328872327
3,64,0.9994750189159429,-0.00014321883070834033,0.00569342070862035
3,65,0.999426168988586,-0.0001441060198236242,0.005802706643054283
3,66,0.999376420003844,-0.00014590280726628827,0.005912943520770559
3,67,0.9993257384101215,-0.00014877810337445902,0.006024859170852253
3,68,0.999274072602019,-0.0001529243604875979,0.006139312123309211
3,69,0.9992213492058071,-0.00015856163798598993,0.0062573093744882
3,70,0.9991674686089046,-0.0001659424738338679,0.006380026985640744
3,71,0.9991122995126994,-0.0001753577253343807,0.006508834213929138
3,72,0.9990556722831494,-0.0001871435790165389,0.00664532158237817
3,73,0.9989973707508563,-0.00020168997747738174,0.006791333896760387
3,74,0.9989371220775497,-0.00021945077441732426,0.006949008744819009
3,75,0.998874584126093,-0.00024095601418523498,0.007120821902125783
3,76,0.9988093296782639,-0.00026682684734163876,0.007309640392343878
3,77,0.9987408265639869,-0.0002977937532578809,0.007518785203907827
3,78,0.9986684125570506,-0.0003347189614102232,0.007752104761530041
3,79,0.9985912634226165,-0.0003786242751296846,0.008014061974633694
3,80,0.9985083520539111,-0.0004307259403268272,0.008309836524077071
3,81,0.9984183957870921,-0.0004924788293198897,0.00864544635653824
3,82,0.9983197880186883,-0.0005656330988862176,0.009027890840591043
3,83,0.9982105085929533,-0.000652307752225229,0.009465320930050909
3,84,0.9980880052916917,-0.0007550873197051444,0.009967239341201601
3,85,0.9979490352658386,-0.0008771503620013994,0.010544736472924426
3,86,0.9977894503353796,-0.0010224418239566397,0.011210762404384894
3,87,0.9976039021958176,-0.0011959054250721094,0.011980433408153572
3,88,0.9973854318151772,-0.001403796539016101,0.012871352589195419
3,89,0.9971248885911851,-0.0016540977308640938,0.013903895698808082
3,90,0.996810096303541,-0.001957049760155591,0.015101331449431673
3,91,0.9964246390131827,-0.0023257656558402853,0.0164894804977615
3,92,0.9959460777583278,-0.0027767425605514165,0.01809522028314761
3,93,0.9953433351105863,-0.0033296153545386417,0.01994225145230165
3,94,0.9945729628100908,-0.004004073253897524,0.022040414187303826
3,95,0.9935743273017065,-0.004807492576134386,0.024359771608301436
3,96,0.9922655813482162,-0.005692990965186785,0.02676845656636281
3,97,0.9905500120768603,-0.006422392226803408,0.02888566140256788
3,98,0.9883697076454745,-0.006122447976692347,0.02975533015999898
3,99,0.9859141056425028,-0.0019073123103637015,0.027290198382285816
3,100,0.9840636506120187,0.014733044795743845,0.018315780808359126
3,101,0.9863165462547177,0.061513004858537855,0.004422493131504129
4,1,1.0004592964824517,4.6372759252200925e-6,-3.842046920548318e-7
4,2,1.0004593676802906,8.053908302389108e-6,-1.6626289854969817e-6
4,3,1.0004602927579898,6.001200314937268e-6,-1.9572982314684447e-6
4,4,1.0004619438619304,7.738496918023773e-8,4.851770648286152e-7
4,5,1.0004642205874263,-8.508188609605338e-6,6.935171461681684e-6
4,6,1.0004670231698316,-1.8864127526642984e-5,1.832085281905001e-5
4,7,1.0004702496808935,-3.035392040872433e-5,3.530479472012789e-5
4,8,1.000473797732984,-4.253230970004752e-5,5.83416338037461e-5
4,9,1.0004775668653032,-5.5091359072124415e-5,8.772614849225092e-5
4,10,1.0004814602950711,-6.781938503595677e-5,0.00012363300824007513
4,11,1.0004853858568892,-8.05713575763584e-5,0.0001661478845935397
4,12,1.0004892563138787,-9.324810336838968e-5,0.0002152913731598891
4,13,1.0004929892698333,-0.0001057818378672575,0.0002710365674054665
4,14,1.0004965068636054,-0.00011812612178839758,0.0003333221133312504
4,15,1.0004997353656542,-0.00013024887948554683,0.00040206139369720293
4,16,1.000502604753065,-0.00014212753401670168,0.0004771492503735158
4,17,1.0005050483038735,-0.0001537456106159643,0.0005584664578986093
4,18,1.000507002235613,-0.00016509036474998852,0.0006458829678024227
4,19,1.0005084053958069,-0.00017615113005918455,0.0007392598355469991
4,20,1.0005091990101806,-0.0001869181759672487,0.0008384506068930086
4,21,1.000509326484479,-0.0001973819290360222,0.0009433019052419759
4,22,1.0005087332597993,-0.00020753245625652924,0.00105365385777305
4,23,1.0005073667136568,-0.0002173591387645699,0.0011693400125710861
4,24,1.0005051761056727,-0.00022685048562646353,0.0012901873053024022
4,25,1.0005021125592486,-0.00023599405195730947,0.0014160156834333317
4,26,1.000498129078634,-0.00024477643607297486,0.0015466378997106708
4,27,1.000493180592721,-0.00025318333752256077,0.0016818590632284888
4,28,1.0004872240258278,-0.00026119966313392634,0.0018214764302153827
4,29,1.0004802183868622,-0.0002688096716662086,0.001965279016494689
4,30,1.0004721248779418,-0.0002759971504010438,0.0021130474932025472
4,31,1.0004629070137874,-0.00028274561860142675,0.0022645539486023125
4,32,1.0004525307536634,-0.00028903855421767976,0.00241956196162858
4,33,1.000440964636925,-0.00029485964085207997,0.0025778265748905237
4,34,1.0004281799245307,-0.0003001930328093029,0.0027390945989926615
4,35,1.0004141507372173,-0.0003050236361911015,0.0029031048430881315
4,36,1.0003988541931907,-0.0003093374045065625,0.003069588690593941
4,37,1.0003822705355923,-0.00031312164716889765,0.0032382706235954987
4,38,1.0003643832530733,-0.0003163653496541414,0.0034088691020732064
4,39,1.0003451791832827,-0.00031905950391308347,0.003581097411170844
4,40,1.0003246486030934,-0.0003211974480482977,0.003754664869600164
4,41,1.0003027852949165,-0.00032277521410743726,0.003929278023144395
4,42,1.000279586593495,-0.0003237918833665722,0.00410464220293191
4,43,1.0002550534020824,-0.00032424994842174406,0.00428046308444767
4,44,1.0002291901830282,-0.0003241556821041624,0.004456448613132557
4,45,1.000202004911239,-0.00032351951335855985,0.0046323109462154495
4,46,1.0001735089962307,-0.00032235641116772935,0.004807768762518893
4,47,1.0001437171607739,-0.000320686277989465,0.0049825496058135185
4,48,1.000112647282524,-0.00031853435543407137,0.005156392599269972
4,49,1.0000803201860873,-0.0003159316456425368,0.0053290512155452505
4,50,1.0000467593924924,-0.0003129153535010189,0.005500296426075729
4,51,1.0000119908127272,-0.00030952935601871723,0.005669919937090952
4,52,0.9999760423926538,-0.0003058247073919619,0.005837737822567472
4,53,0.9999389436947349,-0.0003018601900798112,0.006003594289853391
4,54,0.999900725423759,-0.0002977029250781404,0.006167365875985271
4,55,0.9998614188800528,-0.00029342905718625204,0.006328965845401508
4,56,0.9998210553464157,-0.00028912453478700844,0.006488349076699966
4,57,0.9997796653891757,-0.0002848860073293181,0.006645517252724321
4,58,0.9997372780773406,-0.00028082186856580435,0.006800524633923066
4,59,0.9996939200953272,-0.00027705347867666035,0.006953484283686707
4,60,0.9996496147489174,-0.00027371660478297947,0.007104575021578229
4,61,0.9996043808322311,-0.00027096312631077026,0.007254049041080633
4,62,0.9995582313477869,-0.0002689630600657582,0.00740224046855658
4,63,0.9995111720354698,-0.0002679069693781848,0.007549574884509134
4,64,0.9994631996898372,-0.00026800883283192384,0.007696580090573752
4,65,0.9994143002029862,-0.00026950946109004876,0.007843898247652609
4,66,0.99936444629181,-0.0002726805653631226,0.007992299682175946
4,67,0.9993135948179055,-0.0002778295990412724,0.008142698613331717
4,68,0.9992616836256842,-0.00028530551474714684,0.008296171118610711
4,69,0.9992086277615302,-0.00029550560451423516,0.008453975743475822
4,70,0.9991543149457777,-0.00030888362046252357,0.008617577097565539
4,71,0.9990986000882691,-0.00032595941075981273,0.008788673021691925
4,72,0.999041298631689,-0.000347330350280229,0.00896922569091694
4,73,0.9989821783970502,-0.0003736849032375172,0.009161497435437798
4,74,0.9989209495708328,-0.0004058187261594371,0.009368091647117117
4,75,0.9988572523161037,-0.00044465381393937346,0.009591999746770481
4,76,0.9987906414029565,-0.00049126131086086,0.009836654515767715
4,77,0.9987205670151516,-0.0005468887685958017,0.010105990887991247
4,78,0.998646350705183,-0.0006129928380734173,0.010404514250503887
4,79,0.9985671550858215,-0.000691278654989956,0.010737377199112361
4,80,0.998481945474607,-0.0007837475219987877,0.01111046400100946
4,81,0.9983894410519875,-0.0008927549242872631,0.011530482700150361
4,82,0.9982880523581281,-0.0010210814096544606,0.01200506173851112
4,83,0.9981758007787813,-0.0011720193665752199,0.012542847338067065
4,84,0.9980502142257196,-0.0013494790197709006,0.013153591298076004
4,85,0.9979081910626081,-0.0015581165496594688,0.013848213230798974
4,86,0.9977458215767377,-0.0018034849144012955,0.01463880414772612
4,87,0.997558152506913,-0.002092201033252736,0.015538514943585565
4,88,0.9973388755963438,-0.002432105297159295,0.016561221481443
4,89,0.997079916258515,-0.002832346955553042,0.017720770928009
4,90,0.9967708959379133,-0.003303229451665127,0.019029438231111962
4,91,0.9963984493068517,-0.003855417380604657,0.020494896436961785
4,92,0.9959454170764522,-0.004497558839358071,0.022114360917225503
4,93,0.995390067853597,-0.005230064042460625,0.02386333008503976
4,94,0.9947058916166209,-0.0060295728507843245,0.02567395869913425
4,95,0.9938635866308155,-0.0068106743246333385,0.027393805077472758
4,96,0.9928396863025868,-0.007331633502815746,0.028709348527757864
4,97,0.9916428868487497,-0.00696377916005688,0.029016461479782575
4,98,0.9903803504966766,-0.0041498162873222465,0.02725851577787277
4,99,0.9893858828562082,0.004706587090902158,0.02196939572364045
4,100,0.9893544798144199,0.026685127324951385,0.012438217193351628
4,101,0.9918985759165216,0.07007634591135148,0.0025526454500285818
5,1,1.0004563303292964,4.329077406844309e-6,-1.0203595561548009e-7
5,2,1.0004567624434273,7.215596101783968e-6,1.4317357631491672e-7
5,3,1.0004578969429307,2.636122970665915e-6,2.609493244079584e-6
5,4,1.0004596361431601,-7.275735980081482e-6,8.937209528175737e-6
5,5,1.000461893999734,-2.0936880447813595e-5,2.0365571131351304e-5
5,6,1.0004645853634826,-3.717021182989465e-5,3.782929875419755e-5
5,7,1.0004676239736312,-5.5111847129394066e-5,6.202103957260967e-5
5,8,1.000470922768189,-7.413627798035507e-5,9.343763230518813e-5
5,9,1.000474395120772,-9.379526620119151e-5,0.00013241855133464765
5,10,1.0004779560699857,-0.00011376987683118691,0.00017917909800404123
5,11,1.0004815232031883,-0.00013383420470012512,0.00023383796802174748
5,12,1.000485017157012,-0.00015382862605650924,0.00029643982012686563
5,13,1.0004883618105223,-0.00017364036206810046,0.00036697282192056337
5,14,1.0004914842699706,-0.00019318946376844186,0.0004453823641771886
5,15,1.0004943147281613,-0.00021241874222400917,0.0005315811863122535
5,16,1.000496786262376,-0.00023128654440767317,0.0006254570931290174
5,17,1.0004988346110668,-0.000249761575739752,0.0007268783552985894
5,18,1.0005003979584421,-0.00026781919571904024,0.0008356977636230699
5,19,1.00050141674025,-0.000285438776937687,0.0009517552311973966
5,20,1.0005018334822504,-0.0003026018352150658,0.0010748797276512309
5,21,1.0005015926720544,-0.0003192907220371364,0.0012048902971474003
5,22,1.0005006406685752,-0.0003354877298810933,0.0013415968181530586
5,23,1.0004989256444483,-0.00035117450310499137,0.0014848001706752917
5,24,1.0004963975632404,-0.00036633167723616397,0.0016342923893144846
5,25,1.0004930081846344,-0.00038093869087685555,0.0017898564205550461
5,26,1.0004887110989906,-0.0003949737299681825,0.001951266012520352
5,27,1.0004834617835272,-0.0004084137750770495,0.0021182853320871092
5,28,1.0004772176818235,-0.0004212347304701837,0.0022906688048611864
5,29,1.0004699382983442,-0.0004334116192925656,0.0024681607633439554
5,30,1.0004615853102008,-0.000444918833431586,0.0026504953759223585
5,31,1.000452122687385,-0.00045573042938488193,0.002837396440511347
5,32,1.0004415168242067,-0.00046582046372063723,0.0030285774979963995
5,33,1.00042973667268,-0.00047516336295871307,0.003223741852448891
5,34,1.0004167538810853,-0.0004837343239369668,0.0034225829385534042
5,35,1.0004025429279053,-0.0004915097411850531,0.003624784629079509
5,36,1.0003870812548348,-0.000498467658556563,0.0038300219094163034