TITLE="CMs_NON_Orthogonal Re = 100.0"
VARIABLES = X,Y,Rho,U,V
ZONE
I = 101	J = 101
F=POINT
1,1,1.0004622015909626,3.9937083391199313e-8,-2.1612095355770165e-7
1,2,1.0004620589915398,3.4544084873921424e-7,-1.3048564987898675e-6
1,3,1.0004629065699389,3.85088239979193e-7,-2.858627391872654e-6
1,4,1.000464886717054,2.1945722923338724e-7,-4.182924653144634e-6
1,5,1.0004678885313356,-6.363757136536236e-8,-4.834141345088609e-6
1,6,1.0004717292984406,-4.110918609373283e-7,-4.557846617252501e-6
1,7,1.0004762216964698,-7.926994138765058e-7,-3.212976538409015e-6
1,8,1.0004811932337923,-1.1909528336231422e-6,-7.252151775308411e-7
1,9,1.000486490098788,-1.5954726154702054e-6,2.9397775093935737e-6
1,10,1.0004919761573734,-2.0000225157704624e-6,7.792121205482485e-6
1,11,1.0004975306069017,-2.4008428679427885e-6,1.3827093070655585e-5
1,12,1.000503045475446,-2.7956822597608832e-6,2.1030942701944074e-5
1,13,1.0005084233571442,-3.183214988164442e-6,2.9384417153204858e-5
1,14,1.000513575488035,-3.562681896813042e-6,3.886502266202793e-5
1,15,1.000518420160238,-3.933663779529975e-6,4.944834259332351e-5
1,16,1.0005228814385032,-4.295936854109807e-6,6.11088982057965e-5
1,17,1.0005268881339835,-4.649379258264604e-6,7.38205671893805e-5
1,18,1.0005303729932995,-4.9939108766054225e-6,8.755685922637466e-5
1,19,1.0005332720653581,-5.329454380899025e-6,0.00010229095486108274
1,20,1.0005355242153864,-5.655910886605422e-6,0.0001179957335334902
1,21,1.0005370707601344,-5.973144882937399e-6,0.00013464365559428526
1,22,1.0005378552038804,-6.280976034554473e-6,0.0001522066920644292
1,23,1.0005378230577526,-6.579175160289346e-6,0.00017065615107589972
1,24,1.000536921728966,-6.867463722947641e-6,0.0001899625790160424
1,25,1.000535100468056,-7.145515230230992e-6,0.00021009558001484191
1,26,1.0005323103651425,-7.412958653499898e-6,0.0002310237229427062
1,27,1.0005285043867425,-7.669382724342653e-6,0.0002527143789309799
1,28,1.0005236374468827,-7.914341587562632e-6,0.0002751336527267185
1,29,1.0005176665060795,-8.14736084827682e-6,0.0002982462524421828
1,30,1.0005105506935352,-8.36794468844949e-6,0.0003220154564350482
1,31,1.0005022514472883,-8.57558313977848e-6,0.0003464030245016542
1,32,1.0004927326685726,-8.76976029969997e-6,0.00037136920802604775
1,33,1.0004819608857374,-8.949962571320069e-6,0.00039687270945054615
1,34,1.0004699054244668,-9.115687784259115e-6,0.0004228707417232019
1,35,1.0004565385799427,-9.266454240668079e-6,0.00044931904159388757
1,36,1.000441835787938,-9.401810602655412e-6,0.00047617198333842144
1,37,1.000425775790603,-9.521345608657716e-6,0.0005033826505315725
1,38,1.0004083407940825,-9.624698598951878e-6,0.0005309030081698135
1,39,1.0003895166137644,-9.71156976848866e-6,0.0005586840367658276
1,40,1.0003692928044499,-9.781731204009915e-6,0.0005866759661661327
1,41,1.000347662771281,-9.835037545260256e-6,0.0006148284750240459
1,42,1.0003246238589054,-9.871437424324387e-6,0.0006430909888300868
1,43,1.0003001774148124,-9.890984441295977e-6,0.0006714129471429301
1,44,1.0002743288245726,-9.89384895063218e-6,0.0006997441677657277
1,45,1.0002470875150742,-9.880329334881039e-6,0.0007280351837588242
1,46,1.0002184669238212,-9.850864190763493e-6,0.0007562376755605804
1,47,1.000188484430576,-9.806044027990306e-6,0.0007843048800865747
1,48,1.0001571612498004,-9.746624090503649e-6,0.0008121920932929565
1,49,1.0001245222803339,-9.673536830083786e-6,0.0008398571550203712
1,50,1.000090595911122,-9.587905882324433e-6,0.0008672610265296714
1,51,1.0000554137794735,-9.491060003597144e-6,0.0008943683577618874
1,52,1.0000190104808409,-9.384549128781338e-6,0.000921148148412188
1,53,0.9999814232263391,-9.270160949004054e-6,0.000947574409714989
1,54,0.999942691446813,-9.149940560739085e-6,0.0009736269245428119
1,55,0.9999028563388427,-9.026211549585332e-6,0.0009992920247232867
1,56,0.9998619603505985,-8.901601559631447e-6,0.0010245634766419462
1,57,0.9998200466011478,-8.779070711118964e-6,0.0010494434088414123
1,58,0.9997771582290474,-8.661946567917338e-6,0.0010739433663116266
1,59,0.9997333376604186,-8.553964073258402e-6,0.0010980854436377654
1,60,0.999688625788342,-8.459315004536573e-6,0.0011219035758431753
1,61,0.9996430610477868,-8.382705523644613e-6,0.001145444962369247
1,62,0.9995966783707942,-8.329427504042523e-6,0.0011687716982415608
1,63,0.9995495079960688,-8.305442525242945e-6,0.0011919626175927634
1,64,0.9995015741055613,-8.317485752100022e-6,0.0012151154207912275
1,65,0.9994528932456372,-8.373189172576005e-6,0.0012383491288326571
1,66,0.9994034724852071,-8.481233544720088e-6,0.0012618069369857974
1,67,0.9993533072413969,-8.651529569886685e-6,0.0012856595619953626
1,68,0.9993023786918477,-8.895440701596607e-6,0.0013101091617665908
1,69,0.9992506506601719,-9.226049977783272e-6,0.001335393989925106
1,70,0.9991980658388084,-9.658487863896315e-6,0.001361793882019206
1,71,0.9991445411635149,-1.0210326911304207e-5,0.0013896368299923204
1,72,0.9990899621125786,-1.090206747076913e-5,0.0014193067792686778
1,73,0.9990341756245846,-1.1757726715001253e-5,0.0014512530407548832
1,74,0.998976981253574,-1.280556749827313e-5,0.001486001526793275
1,75,0.9989181200500423,-1.4078992015813243e-5,0.0015241684092670118
1,76,0.9988572605180877,-1.5617659170569778e-5,0.0015664765565337338
1,77,0.9987939807741946,-1.7468876808635432e-5,0.0016137756812346536
1,78,0.9987277457711391,-1.968937156590645e-5,0.0016670668533597505
1,79,0.9986578780394261,-2.2347544016082414e-5,0.0017275328948662089
1,80,0.9985835198779721,-2.5526403838570107e-5,0.0017965759308722854
1,81,0.9985035841188927,-2.9327420533441548e-5,0.0018758647221783244
1,82,0.9984166894896751,-3.387569054116377e-5,0.0019673944020182706
1,83,0.9983210748758795,-3.932696050599102e-5,0.002073563520028025
1,84,0.9982144842716941,-4.587740165781735e-5,0.0021972740842528047
1,85,0.9980940101803953,-5.3777443494265153e-5,0.002342064566556352
1,86,0.9979558769411456,-6.33518372521432e-5,0.0025122889365644992
1,87,0.9977951350038927,-7.502934629032694e-5,0.0027133638625476946
1,88,0.9976052197315284,-8.938782727021527e-5,0.0029521160723210804
1,89,0.9973772977058815,-0.00010722432552643312,0.003237283893839173
1,90,0.9970992685912456,-0.00012966720684277325,0.0035802576315084236
1,91,0.9967541871414587,-0.000158360755577022,0.003996204788102753
1,92,0.9963176671167348,-0.00019577931179473842,0.004505826162724071
1,93,0.9957534083737963,-0.00024578071986167696,0.00513818382003305
1,94,0.9950050639085765,-0.0003146185043189816,0.0059353910561983705
1,95,0.9939804759397718,-0.00041285892569843625,0.0069606179093409035
1,96,0.9925186542710539,-0.0005590983585366302,0.008311967531459168
1,97,0.9903134736572805,-0.0007868383678195877,0.010145790897819883
1,98,0.9867145138414541,-0.0011499827631317073,0.01270544218184039
1,99,0.9801508987432658,-0.0016279759226478527,0.016251595559846115
1,100,0.9667508672670718,-0.0007833212907702123,0.01986162071370479
1,101,0.93438791244959,0.024601799241067108,0.009808711758192088
2,1,1.0004623444764478,1.480044005546157e-6,-5.206924891326653e-7
2,2,1.000462202317346,3.0073868200092075e-6,-2.8272389917932035e-6
2,3,1.00046303571448,3.004840124858875e-6,-5.639557273280399e-6
2,4,1.0004648106047553,1.8861785728965848e-6,-7.582800652462783e-6
2,5,1.000467439136133,6.726795789627863e-8,-7.690351497874829e-6
2,6,1.0004707904599484,-2.1688118729045484e-6,-5.326067619462752e-6
2,7,1.0004747194208954,-4.643438188071395e-6,-9.353882549585784e-8
2,8,1.0004790829614656,-7.2451252351660494e-6,8.241389196148868e-6
2,9,1.000483747065622,-9.9039910955e-6,1.9805731570238715e-5
2,10,1.0004885887964416,-1.2576002388288838e-5,3.4656330438056103e-5
2,11,1.000493496139361,-1.5233358678352823e-5,5.2804084479071035e-5
2,12,1.0004983669788,-1.7858549078314765e-5,7.422991400834503e-5
2,13,1.0005031078168678,-2.044061338127862e-5,9.889515781246959e-5
2,14,1.0005076325054243,-2.2972749182128057e-5,0.00012674845644475408
2,15,1.000511861100688,-2.5450758053618773e-5,0.00015773015436124503
2,16,1.000515718878003,-2.787202493034786e-5,0.0001917751911301557
2,17,1.0005191355083585,-3.0234842828185917e-5,0.000228814826795937
2,18,1.0005220443862377,-3.253796467500048e-5,0.0002687777256428893
2,19,1.000524382091027,-3.478030691133104e-5,0.00031159046006644495
2,20,1.0005260879656404,-3.6960755670518996e-5,0.00035717776812502574
2,21,1.000527103794809,-3.907804334200123e-5,0.00040546250523629214
2,22,1.0005273735695748,-4.1130673840496044e-5,0.0004563655372813048
2,23,1.0005268433240568,-4.311688219505493e-5,0.000509805462282112
2,24,1.0005254610347816,-4.503461849557123e-5,0.0005656983663956614
2,25,1.00052317657196,-4.688154960548532e-5,0.0006239574780547427
2,26,1.000519941695959,-4.8655073919196855e-5,0.0006844929045948063
2,27,1.0005157100906967,-5.0352346126963505e-5,0.0007472113056833696
2,28,1.0005104374292677,-5.197030968565969e-5,0.0008120156758109899
2,29,1.0005040814649946,-5.350573560874298e-5,0.0008788050872570526
2,30,1.000496602144546,-5.495526640166627e-5,0.0009474745580736817
2,31,1.0004879617371571,-5.6315464514944954e-5,0.0010179148968270035
2,32,1.0004781249774144,-5.75828646468102e-5,0.0010900126829193248
2,33,1.0004670592160598,-5.875402960399465e-5,0.0011636502361610083
2,34,1.0004547345767563,-5.9825609259536685e-5,0.0012387057295154065
2,35,1.000441124113432,-6.079440244199104e-5,0.0013150533014249586
2,36,1.0004262039664475,-6.165742136430511e-5,0.0013925633169775719
2,37,1.0004099535122033,-6.241195846956569e-5,0.0014711026375127333
2,38,1.0003923555046588,-6.305565531016491e-5,0.001550535043207045
2,39,1.0003733962033252,-6.358657336279405e-5,0.0016307216717627883
2,40,1.0003530654864143,-6.400326640508464e-5,0.0017115216128431368
2,41,1.0003313569436476,-6.430485440102188e-5,0.0017927925252756505
2,42,1.000308267947681,-6.449109856864401e-5,0.0018743914115645925
2,43,1.000283799698595,-6.456247767993026e-5,0.0019561754211480475
2,44,1.0002579572407582,-6.452026537888067e-5,0.002038002811701276
2,45,1.0002307494464997,-6.436660876470859e-5,0.0021197339450763097
2,46,1.0002021889662893,-6.410460823360856e-5,0.002201232441925631
2,47,1.0001722921398766,-6.373839914681085e-5,0.002282366377827383
2,48,1.0001410788684861,-6.327323566296935e-5,0.002363009639872561
2,49,1.0001085724424579,-6.27155777832671e-5,0.002443043334272252
2,50,1.0000747993247996,-6.207318246582918e-5,0.002522357359275912
2,51,1.0000397888847565,-6.13552005601468e-5,0.0026008520437747302
2,52,1.000003573082044,-6.057228116491417e-5,0.0026784399619834524
2,53,0.9999661860951966,-5.973668614418429e-5,0.0027550478371893695
2,54,0.9999276638944172,-5.886241746518517e-5,0.0028306186423086702
2,55,0.9998880437510645,-5.7965361458579734e-5,0.0029051138265964527
2,56,0.9998473636831389,-5.7063454142232764e-5,0.002978515775500515
2,57,0.9998056618264728,-5.617687359478018e-5,0.003050830454339134
2,58,0.9997629757287062,-5.532826558443731e-5,0.0031220903448595317
2,59,0.9997193415515172,-5.4543011040763474e-5,0.0031923576533282975
2,60,0.9996747931738524,-5.3849544457209256e-5,0.0032617279053760023
2,61,0.9996293611745961,-5.327973544144282e-5,0.0033303339430955725
2,62,0.9995830716797722,-5.2869346554972116e-5,0.003398350451738734
2,63,0.9995359450412826,-5.2658584764146444e-5,0.003465999080324745
2,64,0.9994879943193526,-5.2692765438849155e-5,0.0035335543042883896
2,65,0.9994392235172856,-5.302311352034355e-5,0.0036013501596303924
2,66,0.9993896255193411,-5.370772924060164e-5,0.003669788030211925
2,67,0.9993391796507991,-5.481275372956335e-5,0.0037393457055236745
2,68,0.9992878487759778,-5.6413774579863855e-5,0.003810587943187893
2,69,0.9992355758057089,-5.859752299651627e-5,0.003884178873901497
2,70,0.999182279472385,-6.146392248019952e-5,0.0039608965653113335
2,71,0.9991278491666591,-6.512856667719245e-5,0.004041650251368036
2,72,0.9990721385980981,-6.972571918847594e-5,0.004127500673958543
2,73,0.9990149579454617,-7.54119569808815e-5,0.0042196842884341425
2,74,0.9989560640965556,-8.237060791075936e-5,0.004319641992626622
2,75,0.9988951484245746,-9.08171833966186e-5,0.0044290535038296105
2,76,0.9988318214174842,-0.00010100606475984954,0.00454987840611502
2,77,0.9987655932207753,-0.00011323879678363927,0.004684405594006309
2,78,0.9986958488949141,-0.00012787446142666753,0.004835312785329061
2,79,0.9986218167312496,-0.00014534279537104295,0.005005738864937417
2,80,0.9985425274410058,-0.00016616097302855808,0.005199371958725263
2,81,0.9984567611523456,-0.00019095538208649206,0.005420557899313314
2,82,0.998362978017752,-0.0002204902976512806,0.005674434399999816
2,83,0.998259226399238,-0.00025570626881204323,0.005967099274665714
2,84,0.998143020020039,-0.0002977723830924581,0.006305822940983604
2,85,0.9980111712930289,-0.0003481587091052384,0.006699320924099291
2,86,0.9978595617142774,-0.0004087385061741293,0.007158106751685713
2,87,0.997682819756628,-0.00048193504951865,0.007694955865831678
2,88,0.9974738598089397,-0.0005709362313639488,0.008325521277718696
2,89,0.9972232067541014,-0.0006800134930867853,0.009069159572808162
2,90,0.9969179809500337,-0.0008150028490631224,0.009950041585828556
2,91,0.9965403287045865,-0.0009840386714835075,0.01099863788331912
2,92,0.9960649188528523,-0.0011986770830912084,0.01225364548479707
2,93,0.9954548132484167,-0.001475591541020152,0.01376428078745733
2,94,0.9946544119374385,-0.0018389760145839033,0.015592293689474401
2,95,0.9935769817035937,-0.002323207297796412,0.01781111093465005
2,96,0.9920820589914061,-0.002972117854854573,0.020492835304943568
2,97,0.989935229775006,-0.0038151447455511307,0.02365023784817902
2,98,0.9867506790301707,-0.004717280701966032,0.027015082549130525
2,99,0.9820167391923641,-0.0045611026305737695,0.029247480355997352
2,100,0.9758360037187005,0.002732911016181049,0.025668990469912056
2,101,0.9728032345715187,0.046935285355622317,0.008072569107397612
3,1,1.0004614992659024,2.6747799610029217e-6,-5.577874785718854e-7
3,2,1.0004613700623428,5.461216720558979e-6,-2.810272257332956e-6
3,3,1.000462199505078,4.858018109623092e-6,-5.011472179027731e-6
3,4,1.0004638631977,1.838662862882606e-6,-5.479954449784248e-6
3,5,1.00046626003883,-2.790525886576909e-6,-3.02306343317675e-6
3,6,1.0004692774979833,-8.444465915555696e-6,3.200014120057209e-6
3,7,1.0004727957612254,-1.4723853117159516e-5,1.3759006213926985e-5
3,8,1.0004766945108867,-2.1362612997431844e-5,2.902139686283145e-5
3,9,1.0004808576461883,-2.8184807554362736e-5,4.9208714348169614e-5
3,10,1.0004851756415751,-3.5074327889063594e-5,7.443939116107292e-5
3,11,1.0004895463088215,-4.195461238914692e-5,0.00010475980623793015
3,12,1.000493874669814,-4.877524508927711e-5,0.00014016635701653951
3,13,1.0004980724007637,-5.5503086313084156e-5,0.0001806208084834572
3,14,1.0005020571133698,-6.211636326708412e-5,0.0002260609915206591
3,15,1.0005057516143119,-6.860070174414271e-5,0.00027640805806515453
3,16,1.0005090832147723,-7.49464425002765e-5,0.0003315714596507481
3,17,1.0005119831207703,-8.114681723003856e-5,0.0003914521717035286
3,18,1.0005143859156242,-8.719670624835411e-5,0.00045594483152392243
3,19,1.000516229133122,-9.309179418094169e-5,0.0005249389647564832
3,20,1.0005174529166174,-9.882800093641975e-5,0.0005983197204134602
3,21,1.0005179997550342,-0.00010440110506195612,0.0006759681206314883
3,22,1.000517814288272,-0.00010980650304558736,0.0007577611223222058
3,23,1.000516843172531,-0.00011503906575540466,0.0008435714153905493
3,24,1.0005150349989305,-0.00012009306524540663,0.0009332671921614905
3,25,1.0005123402571372,-0.00012496215325649089,0.0010267117734650412
3,26,1.0005087113388955,-0.0001296393784504768,0.0011237632929338172
3,27,1.0005041025744097,-0.00013411723321862465,0.0012242743066310361
3,28,1.0004984702977902,-0.00013838772369960178,0.001328091511017863
3,29,1.0004917729354033,-0.00014244245842061712,0.0014350554285676507
3,30,1.0004839711142834,-0.00014627275237867832,0.00154500023273333
3,31,1.0004750277849799,-0.0001498697441615747,0.0016577535691157071
3,32,1.00046490835662,-0.00015322452443497495,0.0017731365368065042
3,33,1.0004535808387969,-0.00015632827440077924,0.0018909636870377148
3,34,1.0004410159884773,-0.00015917241323458624,0.0020110431970413326
3,35,1.0004271874565787,-0.00016174875352776893,0.0021331770779540746
3,36,1.0004120719326668,-0.00016404966402446225,0.0022571615692861457
3,37,1.0003956492823805,-0.00016606823883981463,0.0023827875812589567
3,38,1.00037790267623,-0.000167798472562684,0.002509841332338853
3,39,1.0003588187042811,-0.00016923544051289556,0.002638105046245087
3,40,1.0003383874755731,-0.00017037548364829972,0.0027673578505512256
3,41,1.0003166026966956,-0.00017121639751188882,0.0028973767446069634
3,42,1.0002934617286119,-0.00017175762489399124,0.0030279377736438613
3,43,1.0002689656160921,-0.00017200045184165752,0.0031588172808603306
3,44,1.0002431190891476,-0.00017194820703877079,0.0032897933691365577
3,45,1.000215930530784,-0.0001716064646396602,0.003420647449146537
3,46,1.0001874119108143,-0.000170983251173602,0.003551166000549489
3,47,1.0001575786800025,-0.00017008925734548068,0.0036811424293133025
3,48,1.000126449624617,-0.00016893805627842968,0.0038103791434269015
3,49,1.000094046675539,-0.0001675463301491139,0.0039386897382177
3,50,1.0000603946722375,-0.0001659341081351872,0.004065901410051954
3,51,1.000025521075445,-0.00016412501925309664,0.0041918575003930016
3,52,0.9999894556288159,-0.00016214656495369047,0.0043164202870182205
3,53,0.9999522299626846,-0.0001600304173497593,0.004439473938639591
3,54,0.9999138771397104,-0.00015781275064846077,0.004560927749965086
3,55,0.9998744311341055,-0.00015553461483262744,0.004680719592414705
3,56,0.9998339262429081,-0.00015324236288893794,0.004798819700919202
3,57,0.9997923964184401,-0.00015098814497876704,0.004915234757195747
3,58,0.9997498745177406,-0.0001488304859420793,0.0050300123977218185
3,59,0.9997063914537402,-0.0001468349654921611,0.005143246140156249
3,60,0.9996619752391409,-0.00014507502447202788,0.005255080870272078
3,61,0.9996166499005875,-0.00014363292471415514,0.005365718927219226
3,62,0.9995704342458636,-0.0001426008954805005,0.005475426951282274
3,63,0.999523340450111,-0.00014208250534934562,0.005584543590052515
3,64,0.9994753724302261,-0.00014219430588073285,0.005693488260485097
3,65,0.9994265239549532,-0.00014306780178397402,0.005802771139266601
3,66,0.999376776437742,-0.0001448518128054184,0.005913004627482435
3,67,0.9993260963304587,-0.00014771530474373134,0.00602491656280882
3,68,0.9992744320293014,-0.00015185078222484184,0.006139365494545831
3,69,0.999221710163908,-0.00015747835417445686,0.006257358427996341
3,70,0.9991678311229846,-0.00016485060601364036,0.006380071451868142
3,71,0.9991126636112448,-0.0001742584413966422,0.006508873832953797
3,72,0.9990560379956132,-0.00018603809337546122,0.006645356131994377
3,73,0.9989977381099933,-0.0002005795528481731,0.00679136316587009
3,74,0.9989374911166661,-0.00021833672555494337,0.006949032573310637
3,75,0.9988749548816792,-0.0002398397138612939,0.007120840143837631
3,76,0.9988097021866755,-0.0002657097349522845,0.007309652969425781
3,77,0.99874120086434,-0.0002966773462153796,0.007518792057138317
3,78,0.9986687886870682,-0.00033360486971433846,0.007752105922359988
3,79,0.9985916414216874,-0.00037751421904811354,0.008014057499728593
3,80,0.9985087319577328,-0.0004296217715400055,0.008309826588728284
3,81,0.9984187776307358,-0.0004913825550853827,0.00864543116883912
3,82,0.998320171829555,-0.0005645469095026719,0.009027870760283604
3,83,0.9982108943936387,-0.0006512340507607152,0.009465296355441466
3,84,0.9980883930907268,-0.0007540287541701178,0.009967210857659102
3,85,0.9979494250601474,-0.0008761098580418839,0.010544704702136103
3,86,0.9977898420984403,-0.0010214226181735424,0.011210728186495515
3,87,0.9976042958796563,-0.0011949110957272624,0.011980397597947412
3,88,0.9973858273363148,-0.0014028310343053797,0.01287131627519242
3,89,0.9971252858325086,-0.0016531653896138376,0.013903859924789751
3,90,0.9968104951005706,-0.0019561553255605106,0.015101297472911635
3,91,0.9964250391567784,-0.0023249142743415165,0.016489449410749344
3,92,0.9959464789897332,-0.0027759397671697043,0.01809519331170389
3,93,0.9953437371258382,-0.0033288670323082725,0.019942229457928475
3,94,0.9945733652891039,-0.004003385565230206,0.02204039800512059
3,95,0.9935747299098505,-0.004806871842294766,0.024359761461008975
3,96,0.9922659838799577,-0.005692443444263473,0.02676845239117747
3,97,0.990550414412363,-0.006421923708592541,0.028885662398137873
3,98,0.9883701104147363,-0.006122062673913835,0.029755334614855255
3,99,0.985914509081532,-0.001907011076856324,0.027290205211486212
3,100,0.9840640633694157,0.014733273711866118,0.018315780273277817
3,101,0.9863169618269915,0.06151319442853298,0.004422507768057879
4,1,1.0004595321074814,4.336027587708804e-6,-3.901477981038037e-7
4,2,1.0004596034830822,7.741687251963894e-6,-1.6805442028465936e-6
4,3,1.0004605294614377,5.680742613696102e-6,-1.9851712827169256e-6
4,4,1.000462181746562,-2.495050131602498e-7,4.4959221359301123e-7
4,5,1.0004644598357615,-8.840446034034152e-6,6.893909635073053e-6
4,6,1.0004672638910324,-1.920118956164559e-5,1.827546255034895e-5
4,7,1.0004704919536715,-3.069554837302832e-5,3.5256422860250636e-5
4,8,1.000474041623853,-4.287848771989635e-5,5.829108606175356e-5
4,9,1.0004778124369855,-5.544222971527194e-5,8.767402925416184e-5
4,10,1.0004817076101098,-6.817520161136336e-5,0.0001235797635338033
4,11,1.0004856349786966,-8.093244570313933e-5,0.00016609390463264443
4,12,1.0004895073065363,-9.361482999427185e-5,0.0002152369962137303
4,13,1.0004932421974309,-0.00010615458752466663,0.00027098214766018395
4,14,1.0004967617891205,-0.00011850527978789547,0.0003332679967886308
4,15,1.000499992350064,-0.00013063482129012363,0.0004020079641997173
4,16,1.000502863854201,-0.00014252061970050254,0.00047709689066348105
4,17,1.0005053095757817,-0.00015414618316274823,0.0005584155852202952
4,18,1.0005072657276632,-0.00016549875099705218,0.00064583398972017
4,19,1.0005086711524132,-0.00017656764325925706,0.0007392131823042964
4,20,1.0005094670701886,-0.00018734311915149658,0.0008384066872014651
4,21,1.000509596881206,-0.0001978155986007588,0.0009432611386823649
4,22,1.000509006020629,-0.00020797514537644406,0.0010536166325231268
4,23,1.000507641860314,-0.0002178111404183881,0.0011693067186943438
4,24,1.0005054536539488,-0.000227312095116796,0.0012901582946524177
4,25,1.000502392519438,-0.00023646556891432398,0.0014159913035870558
4,26,1.0004984114553321,-0.0002452581659437644,0.0015466184556724588
4,27,1.0004934653853752,-0.000253675592616348,0.0016818448515053892
4,28,1.000487511228574,-0.00026170276324877933,0.0018214677019080558
4,29,1.0004805079891694,-0.0002693239443776602,0.0019652760111114305
4,30,1.0004724168644654,-0.00027652293102143553,0.002113050402890399
4,31,1.0004632013651003,-0.0002832832498741107,0.002264562951474816
4,32,1.000452827446114,-0.0002895883857288535,0.0024195771870548126
4,33,1.000441263643443,-0.00029542202821091585,0.002577848136246482
4,34,1.0004284812144895,-0.00030076833655698094,0.002739122560033981
4,35,1.0004144542773057,-0.00030561222048069916,0.0029031392501032045
4,36,1.0003991599472652,-0.00030993963550411544,0.0030696295399337604
4,37,1.0003825784656093,-0.00031373789121843474,0.0032383178932214197
4,38,1.0003646933189194,-0.0003169959711530682,0.003408922720334148
4,39,1.0003454913437555,-0.0003197048629450627,0.0035811572877230925
4,40,1.0003249628156945,-0.0003218578977256222,0.003754730865516558
4,41,1.0003031015168697,-0.0003234510976783874,0.003929349981158622
4,42,1.0002799047814868,-0.0003244835310473425,0.004104719918959641
4,43,1.0002553735133062,-0.00032495767402080966,0.004280546337074209
4,44,1.000229512174852,-0.00032487977940774145,0.004456537136624065
4,45,1.0002023287422672,-0.00032426025236013614,0.004632404459136658
4,46,1.0001738346258893,-0.00032311403412281503,0.004807866942315725
4,47,1.0001440445503718,-0.0003214609953919759,0.00498265211641276
4,48,1.0001129763947436,-0.00031932634190585116,0.005156499067324089
4,49,1.0000806509860496,-0.000316741035850289,0.005329161256832317
4,50,1.0000470918471343,-0.0003137422381018233,0.005500409623513295
4,51,1.000012324891865,-0.00031037377775895416,0.005670035865715991
4,52,0.9999763780682474,-0.0003066866573696929,0.005837856029450926
4,53,0.9999392809419516,-0.0003027396043000747,0.0060037143173969345
4,54,0.9999010642201227,-0.00029859968131955023,0.006167487243907215
4,55,0.9998617592065111,-0.0002943429722995531,0.00632908807204325
4,56,0.9998213971863763,-0.0002900553624468273,0.006488471663297487
4,57,0.999780008729597,-0.00028583343634168646,0.0066456397023731874
4,58,0.9997376229076538,-0.0002817855217468836,0.0068006464384139645
4,59,0.9996942664085701,-0.0002780329123733801,0.006953604939728241
4,60,0.9996499625405508,-0.00027471130903519123,0.007104694020559626
4,61,0.9996047301013382,-0.00027197252568216657,0.007254165882100024
4,62,0.9995585820957927,-0.0002699865151194498,0.007402354651583341
4,63,0.999511524267436,-0.0002689437787622872,0.007549685919714974
4,64,0.9994635534130898,-0.000269058235923776,0.007696687495505296
4,65,0.9994146554285351,-0.0002705706410920017,0.0078440015523088
4,66,0.999364803032887,-0.0002737526527669368,0.007992398430976114
4,67,0.9993139530915403,-0.0002789116752688282,0.008142792365324012
4,68,0.9992620434511468,-0.0002863966158590569,0.00829625945523753
4,69,0.9992089891620807,-0.00029660472470072484,0.008454058263228035
4,70,0.9991546779469971,-0.00030998971519104207,0.008617653430800112
4,71,0.9990989647199909,-0.0003270713991924213,0.008788742818952387
4,72,0.9990416649261673,-0.0003484471168392555,0.008969288646350786
4,73,0.9989825463910595,-0.0003748052978229143,0.009161553267851258
4,74,0.9989213193035859,-0.0004069415629222217,0.009368140133845928
4,75,0.9988576238314549,-0.0004457778679968934,0.009592040696289656
4,76,0.9987910147469342,-0.0004923853129186461,0.009836687814148199
4,77,0.9987209422381198,-0.0005480113967215556,0.010106016461462015
4,78,0.998646727858776,-0.0006141127066856952,0.010404532126805944
4,79,0.9985675342248167,-0.0006923943001357524,0.01073738745770084
4,80,0.9984823266529514,-0.0007848573831156282,0.011110466851572062
4,81,0.9983898243239745,-0.0008938573212954528,0.011530478416991933
4,82,0.9982884377731085,-0.001022174515748342,0.012005050758036718
4,83,0.9981761883810083,-0.0011731011752405152,0.012542830172139596
4,84,0.9980506040472849,-0.0013505473066178879,0.013153568651089862
4,85,0.9979085831209924,-0.0015591688272021394,0.013848185884327163
4,86,0.9977462158655943,-0.0018045183807230303,0.014638773095539957
4,87,0.9975585489898917,-0.0020932125123988526,0.015538481236948565
4,88,0.9973392741957545,-0.0024330911730282736,0.01656118637665306
4,89,0.9970803168432059,-0.002833303097801882,0.017720735679630124
4,90,0.9967712983109934,-0.003304151137896065,0.019029404241194627
4,91,0.9963988531839204,-0.0038562992179351566,0.020494864986969872
4,92,0.9959458220762286,-0.004498394697335404,0.022114333301881353
4,93,0.9953904734600678,-0.005230847018365754,0.023863307295312147
4,94,0.9947062971821061,-0.006030295302613138,0.02567394151971473
4,95,0.9938639913136017,-0.006811328054714212,0.02739379380001103
4,96,0.9928400891006792,-0.007332210199414687,0.02870934299492041
4,97,0.9916432865402699,-0.006964271381289454,0.029016461022018134
4,98,0.9903807455596423,-0.004150219328841364,0.027258519315531613
4,99,0.989386272775777,0.004706272041893317,0.021969400710257516
4,100,0.9893548555434293,0.0266848860783265,0.01243822898511366
4,101,0.9918989537905593,0.07007614442945828,0.0025526305674716606
5,1,1.0004565665720249,4.617181149601709e-6,-1.0826798954323195e-7
5,2,1.0004569990202448,7.4926574096906235e-6,1.252747574833187e-7
5,3,1.0004581340834082,2.9048667044665837e-6,2.581073275030949e-6
5,4,1.000459874207043,-7.012411479990026e-6,8.90035826263004e-6
5,5,1.000462133196258,-2.067646111234684e-5,2.0322320390059118e-5
5,6,1.000464825845728,-3.691064564426425e-5,3.778135092414426e-5
5,7,1.000467865857248,-5.4851519087593195e-5,6.196974154227739e-5
5,8,1.0004711661483068,-7.387394814393565e-5,9.338398365499688e-5
5,9,1.0004746400813407,-9.35300006392033e-5,0.00013236332562597882
5,10,1.000478202688856,-0.0001135009792533805,0.00017912288343777463
5,11,1.0004817715546588,-0.00013356115315620967,0.00023378127468532181
5,12,1.0004852673128013,-0.00015355101783423578,0.00029638308975184663
5,13,1.0004886138400415,-0.00017335786863812016,0.00036691650138041517
5,14,1.000491738239926,-0.00019290179617664524,0.0004453268854225585
5,15,1.0004945707021962,-0.00021212562620224123,0.0005315270154624366
5,16,1.000497044300321,-0.00023098770373013045,0.0006254046930043379
5,17,1.0004990947685755,-0.0002494567220606476,0.000726828222062843
5,18,1.0005006602862734,-0.00026750802312852325,0.0008356503824760863
5,19,1.0005016812841079,-0.0002851209596981611,0.0009517111087466216
5,20,1.000502100282218,-0.0003022770274300575,0.00107483934687755
5,21,1.0005018617626709,-0.0003189585583527674,0.0012048541494954026
5,22,1.0005009120784163,-0.00033514782659490087,0.0013415653602734663
5,23,1.0004991993964107,-0.00035082645932574404,0.0014847738574343332
5,24,1.000496673674226,-0.000365975075895293,0.0016342716327819337
5,25,1.000493286665997,-0.0003805730995538274,0.0017898416238085607
5,26,1.0004889919562858,-0.00039459870153014205,0.001951257530558394
5,27,1.0004837450170856,-0.0004080288482253328,0.0021182835059316753
5,28,1.0004775032865332,-0.00042083943025016926,0.002290673923964289
5,29,1.000470226264333,-0.000433005457678476,0.002468173099555872
5,30,1.0004618756226376,-0.0004445013100312881,0.0026505151471096266
5,31,1.000452415327252,-0.0004553010323584478,0.0028374238441379743
5,32,1.000441811768111,-0.0004653786709234178,0.003028612675845232
5,33,1.0004300338937113,-0.00047470864337986686,0.0032237849237113933
5,34,1.0004170533486247,-0.00048326613941532563,0.003422633965663787
5,35,1.0004028446085638,-0.0004910275484568375,0.0036248436502888054
5,36,1.0003873851122498,-0.0004979709115946547,0.003830088905806936