TITLE="CMs_NON_Orthogonal Re = 100.0"
VARIABLES = X,Y,Rho,U,V
ZONE
I = 101	J = 101
F=POINT
1,1,0.9999999999999993,-4.5102810375397015e-17,2.775557561562893e-17
1,2,0.9999999999999991,-4.163336342344341e-17,-2.775557561562894e-17
1,3,0.9999999999999993,-5.204170427930425e-17,-1.3877787807814466e-17
1,4,0.9999999999999993,-4.5102810375397015e-17,-4.16333634234434e-17
1,5,0.9999999999999991,-8.326672684688681e-17,-1.387778780781447e-17
1,6,0.9999999999999991,-5.204170427930426e-17,-5.551115123125788e-17
1,7,0.9999999999999993,3.4694469519536167e-17,-1.3877787807814466e-17
1,8,0.9999999999999993,3.1225022567582546e-17,-4.16333634234434e-17
1,9,0.9999999999999993,-3.4694469519536165e-18,0.0
1,10,0.9999999999999993,3.4694469519536165e-18,-4.16333634234434e-17
1,11,0.9999999999999993,3.4694469519536165e-18,-4.16333634234434e-17
1,12,0.9999999999999993,-4.5102810375397015e-17,-1.3877787807814466e-17
1,13,0.9999999999999993,3.1225022567582546e-17,-5.551115123125786e-17
1,14,0.9999999999999993,3.4694469519536165e-18,0.0
1,15,0.9999999999999993,2.08166817117217e-17,-4.16333634234434e-17
1,16,0.9999999999999993,3.4694469519536165e-18,1.3877787807814466e-17
1,17,0.9999999999999994,-8.326672684688679e-17,-5.551115123125786e-17
1,18,0.9999999999999993,1.7347234759768083e-17,5.551115123125786e-17
1,19,0.9999999999999993,3.4694469519536165e-18,-4.16333634234434e-17
1,20,0.9999999999999993,-3.4694469519536165e-18,0.0
1,21,0.9999999999999994,-4.8572257327350623e-17,-4.1633363423443395e-17
1,22,0.9999999999999993,0.0,2.775557561562893e-17
1,23,0.9999999999999993,6.938893903907233e-18,-2.775557561562893e-17
1,24,0.9999999999999993,3.816391647148978e-17,2.775557561562893e-17
1,25,0.9999999999999993,6.938893903907233e-17,-5.551115123125786e-17
1,26,0.9999999999999993,2.4286128663675315e-17,2.775557561562893e-17
1,27,0.9999999999999993,2.775557561562893e-17,-4.16333634234434e-17
1,28,0.9999999999999993,2.4286128663675315e-17,0.0
1,29,0.9999999999999993,2.4286128663675315e-17,-2.775557561562893e-17
1,30,0.9999999999999993,2.775557561562893e-17,5.551115123125786e-17
1,31,0.9999999999999993,2.4286128663675315e-17,-2.775557561562893e-17
1,32,0.9999999999999993,2.775557561562893e-17,2.775557561562893e-17
1,33,0.9999999999999993,2.775557561562893e-17,-4.16333634234434e-17
1,34,0.9999999999999993,2.08166817117217e-17,5.551115123125786e-17
1,35,0.9999999999999993,2.4286128663675315e-17,-2.775557561562893e-17
1,36,0.9999999999999993,2.775557561562893e-17,6.938893903907233e-17
1,37,0.9999999999999993,2.4286128663675315e-17,-5.551115123125786e-17
1,38,0.9999999999999993,2.775557561562893e-17,4.16333634234434e-17
1,39,0.9999999999999993,3.1225022567582546e-17,-4.16333634234434e-17
1,40,0.9999999999999993,2.4286128663675315e-17,2.775557561562893e-17
1,41,0.9999999999999993,2.4286128663675315e-17,-2.775557561562893e-17
1,42,0.9999999999999993,2.4286128663675315e-17,0.0
1,43,0.9999999999999993,2.4286128663675315e-17,0.0
1,44,0.9999999999999993,2.4286128663675315e-17,0.0
1,45,0.9999999999999993,2.4286128663675315e-17,0.0
1,46,0.9999999999999993,2.4286128663675315e-17,0.0
1,47,0.9999999999999993,2.4286128663675315e-17,0.0
1,48,0.9999999999999993,2.4286128663675315e-17,0.0
1,49,0.9999999999999993,2.4286128663675315e-17,0.0
1,50,0.9999999999999993,2.4286128663675315e-17,0.0
1,51,0.9999999999999993,2.4286128663675315e-17,0.0
1,52,0.9999999999999953,1.398187121637313e-15,4.024558464266211e-15
1,53,0.9999999999998828,3.677266824376067e-14,1.079414335691935e-13
1,54,0.999999999998285,4.982785017934807e-13,1.4797191250107541e-12
1,55,0.9999999999827996,4.634036210395591e-12,1.3961387601808872e-11
1,56,0.999999999868075,3.30517627199794e-11,1.0119502459551816e-10
1,57,0.9999999991778312,1.919528391982056e-10,5.982889466549892e-10
1,58,0.9999999956791064,9.410652436898048e-10,2.990970234418413e-9
1,59,0.9999999803629729,3.991333106352969e-9,1.2957521268936634e-8
1,60,0.9999999214309496,1.4900272454874184e-8,4.9495549314921986e-8
1,61,0.9999997194946565,4.9600179297748745e-8,1.6889781491244244e-7
1,62,0.9999990970503851,1.486910158088089e-7,5.200571629476069e-7
1,63,0.9999973574208162,4.0459017340511144e-7,1.4565985704323168e-6
1,64,0.99999292084574,1.005561078807727e-6,3.7352154365744373e-6
1,65,0.9999825421425133,2.294684840617593e-6,8.81763299145108e-6
1,66,0.9999601741608145,4.828700572164875e-6,1.9251186748518822e-5
1,67,0.9999155981621612,9.404471133749894e-6,3.903042188393888e-5
1,68,0.9998331941492126,1.700642548548283e-5,7.375066220870325e-5
1,69,0.9996914838919089,2.86354194575122e-5,0.00013032315241263135
1,70,0.999464192358687,4.501062753616908e-5,0.00021605490859973988
1,71,0.999123343053059,6.620608970477621e-5,0.0003371206788122636
1,72,0.998644299796264,9.133202839851993e-5,0.000496671328706611
1,73,0.9980117894279584,0.00011842483542811848,0.0006932169697532291
1,74,0.9972252740511323,0.00014461809441711616,0.0009197594843660629
1,75,0.9963017925438804,0.0001666535634179567,0.001164411126627879
1,76,0.9952750968843879,0.00018151579042589904,0.0014120336911356988
1,77,0.9941908242697879,0.00018715035789721644,0.0016473399956891176
1,78,0.9930990667450665,0.00018279683482033107,0.0018572363978459462
1,79,0.9920459858731944,0.00016922945110866454,0.0020340214590745215
1,80,0.9910671421422385,0.00014824300530327678,0.0021749671241347857
1,81,0.9901832707709215,0.00012249747771239552,0.002284341337788288
1,82,0.9894001839383483,9.439598958048451e-5,0.0023685326747978127
1,83,0.9887105467578536,6.63549209108266e-5,0.002439503700164288
1,84,0.9880986838565957,3.9438051699037044e-5,0.0025052811623659955
1,85,0.987543763885927,1.4739909920799177e-5,0.002579951248001308
1,86,0.9870247006176184,-8.48853440967615e-6,0.0026674269296695584
1,87,0.9865205013436114,-3.016716189627614e-5,0.0027834460750033965
1,88,0.986013317531345,-5.246257766018157e-5,0.0029270012407569654
1,89,0.9854853746210993,-7.58764323897281e-5,0.0031205022785028816
1,90,0.9849208584382606,-0.00010400017912268184,0.0033613857084046905
1,91,0.9843000773851042,-0.00013854880178827244,0.0036882081441601514
1,92,0.9835997502544855,-0.00018563750524431798,0.004105377062271408
1,93,0.982782751718395,-0.00025016685865352926,0.004682742809744554
1,94,0.9817918815324621,-0.0003425585468784415,0.005447121921606483
1,95,0.980527466593846,-0.00047331704269099127,0.006518540148477009
1,96,0.9788176731416434,-0.0006600659615505572,0.007964292920151292
1,97,0.9763439167434165,-0.0009274809437654917,0.009978371100099786
1,98,0.9724614837076927,-0.0013172646978250847,0.012707703246689791
1,99,0.9656514537188816,-0.0017957032725923903,0.016398975651909686
1,100,0.9521786116145421,-0.0009310705778835166,0.02000142956448996
1,101,0.9201972270526058,0.024472063725830363,0.009878917737522605
2,1,0.9999999999999993,4.5102810375397015e-17,-4.16333634234434e-17
2,2,0.9999999999999993,3.4694469519536167e-17,-4.16333634234434e-17
2,3,0.9999999999999993,6.591949208711872e-17,-2.775557561562893e-17
2,4,0.9999999999999993,3.4694469519536167e-17,-5.551115123125786e-17
2,5,0.9999999999999991,4.510281037539703e-17,-6.938893903907235e-17
2,6,0.9999999999999993,2.08166817117217e-17,-6.938893903907233e-17
2,7,0.9999999999999992,5.898059818321149e-17,-5.551115123125788e-17
2,8,0.9999999999999993,1.7347234759768083e-17,-5.551115123125786e-17
2,9,0.9999999999999993,6.938893903907233e-18,-5.551115123125786e-17
2,10,0.9999999999999994,-2.4286128663675312e-17,-5.551115123125786e-17
2,11,0.9999999999999994,-1.3877787807814466e-17,-6.938893903907232e-17
2,12,0.9999999999999993,-1.3877787807814466e-17,-1.3877787807814466e-17
2,13,0.9999999999999992,-2.08166817117217e-17,-4.16333634234434e-17
2,14,0.9999999999999993,-1.040834085586085e-17,-8.32667268468868e-17
2,15,0.9999999999999993,-4.857225732735063e-17,-4.16333634234434e-17
2,16,0.9999999999999994,3.4694469519536165e-18,-6.938893903907232e-17
2,17,0.9999999999999994,-3.8163916471489775e-17,-5.551115123125786e-17
2,18,0.9999999999999993,6.938893903907233e-18,5.551115123125786e-17
2,19,0.9999999999999993,-3.4694469519536165e-18,-5.551115123125786e-17
2,20,0.9999999999999994,-4.8572257327350623e-17,-2.775557561562893e-17
2,21,0.9999999999999993,6.938893903907233e-18,-4.16333634234434e-17
2,22,0.9999999999999993,1.040834085586085e-17,4.16333634234434e-17
2,23,0.9999999999999993,-1.040834085586085e-17,-2.775557561562893e-17
2,24,0.9999999999999993,3.4694469519536165e-18,4.16333634234434e-17
2,25,0.9999999999999991,-3.469446951953617e-18,-8.326672684688681e-17
2,26,0.9999999999999993,1.040834085586085e-17,-2.775557561562893e-17
2,27,0.9999999999999993,6.938893903907233e-18,-4.16333634234434e-17
2,28,0.9999999999999993,6.938893903907233e-18,-1.3877787807814466e-17
2,29,0.9999999999999993,6.938893903907233e-18,-4.16333634234434e-17
2,30,0.9999999999999993,1.040834085586085e-17,-2.775557561562893e-17
2,31,0.9999999999999993,1.040834085586085e-17,-5.551115123125786e-17
2,32,0.9999999999999993,1.040834085586085e-17,2.775557561562893e-17
2,33,0.9999999999999993,6.938893903907233e-18,-4.16333634234434e-17
2,34,0.9999999999999993,1.040834085586085e-17,0.0
2,35,0.9999999999999993,1.040834085586085e-17,-4.16333634234434e-17
2,36,0.9999999999999993,1.040834085586085e-17,1.3877787807814466e-17
2,37,0.9999999999999993,1.3877787807814466e-17,-2.775557561562893e-17
2,38,0.9999999999999993,1.040834085586085e-17,5.551115123125786e-17
2,39,0.9999999999999993,6.938893903907233e-18,2.775557561562893e-17
2,40,0.9999999999999993,6.938893903907233e-18,2.775557561562893e-17
2,41,0.9999999999999993,6.938893903907233e-18,2.775557561562893e-17
2,42,0.9999999999999993,6.938893903907233e-18,2.775557561562893e-17
2,43,0.9999999999999993,6.938893903907233e-18,2.775557561562893e-17
2,44,0.9999999999999993,6.938893903907233e-18,2.775557561562893e-17
2,45,0.9999999999999993,6.938893903907233e-18,2.775557561562893e-17
2,46,0.9999999999999993,6.938893903907233e-18,2.775557561562893e-17
2,47,0.9999999999999993,6.938893903907233e-18,2.775557561562893e-17
2,48,0.9999999999999993,6.938893903907233e-18,2.775557561562893e-17
2,49,0.9999999999999993,6.938893903907233e-18,2.775557561562893e-17
2,50,0.9999999999999993,6.938893903907233e-18,2.775557561562893e-17
2,51,0.9999999999999993,6.938893903907233e-18,2.775557561562893e-17
2,52,0.9999999999999919,1.2281842209915893e-15,7.466249840604238e-15
2,53,0.9999999999997947,3.2931990467950465e-14,1.9600987499761163e-13
2,54,0.9999999999971241,4.592853875009403e-13,2.651448505205232e-12
2,55,0.99999999997228,4.3892979529997954e-12,2.474373483953607e-11
2,56,0.9999999997949525,3.214153943657675e-11,1.777068631501297e-10
2,57,0.9999999987640887,1.9144285139173887e-10,1.0424966458538937e-9
2,58,0.9999999937041943,9.619552541528964e-10,5.1777808755670176e-9
2,59,0.9999999722154752,4.1792761247171105e-9,2.2311764653477504e-8
2,60,0.9999998918812036,1.5976915356300496e-8,8.487179395690746e-8
2,61,0.9999996240707132,5.445239581509925e-8,2.887437703471125e-7
2,62,0.9999988200271257,1.6712835828126622e-7,8.874681355612775e-7
2,63,0.9999966289452767,4.656452766592008e-7,2.4842620893380306e-6
2,64,0.9999911752722483,1.1852944200136993e-6,6.375333785618624e-6
2,65,0.9999787123806728,2.7711577274520605e-6,1.508266433816968e-5
2,66,0.9999524511831024,5.976964914330705e-6,3.305026035366323e-5
2,67,0.9999012385917883,1.1937613552861675e-5,6.736125692970366e-5
2,68,0.9998085148255038,2.2150561287446557e-5,0.00012817772192656905
2,69,0.9996521964543289,3.8293813095083404e-5,0.00022851135333052644
2,70,0.999406170001349,6.184007963692695e-5,0.00038294975721133817
2,71,0.9990437455665598,9.350441575572778e-5,0.0006052688122086394
2,72,0.9985427917843535,0.00013266544847970692,0.0009052106892828742
2,73,0.9978914128253611,0.00017697322372519487,0.001285335082806132
2,74,0.9970925896762141,0.00022235460124184504,0.0017387793530132826
2,75,0.9961660427719907,0.00026350895628935854,0.0022491667795426665
2,76,0.995146592255447,0.00029482866615152014,0.0027924061982188527
2,77,0.9940788804477425,0.0003114778210319131,0.0033410402434765184
2,78,0.993010257879552,0.00031034545509823504,0.0038684552219603115
2,79,0.9919829476729503,0.00029052593602709505,0.004354434132227942
2,80,0.9910285717133449,0.0002533105067419266,0.0047866038849338904
2,81,0.9901644518134681,0.00020155640162642906,0.005163973362465256
2,82,0.9893945377039961,0.00013892932786936212,0.005492321616281495
2,83,0.9887106033926926,6.882089275524056e-5,0.005787504839351998
2,84,0.9880976878551556,-6.167040666171767e-6,0.00606489900369723
2,85,0.9875355938350221,-8.505829514987403e-5,0.006348393141881678
2,86,0.9870048172366442,-0.00016828818265674013,0.006653480179698948
2,87,0.9864845624409662,-0.00025849081580233085,0.007008288729654966
2,88,0.9859578498727625,-0.0003599116698725888,0.007426356911143675
2,89,0.9854055437168712,-0.0004799608617594302,0.007945655992336305
2,90,0.9848112505835142,-0.0006288822065215681,0.008584815097316744
2,91,0.984152063612639,-0.0008225316728665067,0.0094066910213078
2,92,0.9834026051274454,-0.0010818890097410968,0.010451313442268495
2,93,0.9825220557933022,-0.0014349122518958772,0.011827993864854426
2,94,0.9814532817168907,-0.0019119205813158346,0.013613134264220766
2,95,0.980102569241788,-0.002540848866525449,0.01596015965938689
2,96,0.9783235027822906,-0.0033336926146136487,0.018929455579192987
2,97,0.9758768863265623,-0.004260914502053844,0.022556767031628476
2,98,0.9723867896950587,-0.005118428916540393,0.02643505754088025
2,99,0.9673813899298942,-0.004764474540003287,0.02912834976638419
2,100,0.9610369215171635,0.0027968189895626223,0.02574865978897433
2,101,0.9579498410316976,0.04712368835601933,0.008144068760234137
3,1,0.9999999999999992,-7.632783294297957e-17,4.16333634234434e-17
3,2,0.9999999999999993,-4.5102810375397015e-17,-4.16333634234434e-17
3,3,0.9999999999999993,-4.857225732735063e-17,0.0
3,4,0.9999999999999993,-4.16333634234434e-17,-5.551115123125786e-17
3,5,0.9999999999999991,-4.510281037539703e-17,-8.326672684688681e-17
3,6,0.9999999999999993,3.4694469519536165e-18,-4.16333634234434e-17
3,7,0.9999999999999994,-1.3877787807814466e-17,-5.551115123125786e-17
3,8,0.9999999999999993,-3.816391647148978e-17,-8.32667268468868e-17
3,9,0.9999999999999993,-5.551115123125786e-17,-8.32667268468868e-17
3,10,0.9999999999999993,6.938893903907233e-18,-5.551115123125786e-17
3,11,0.9999999999999993,6.938893903907233e-18,-4.16333634234434e-17
3,12,0.9999999999999994,1.734723475976808e-17,-9.714451465470125e-17
3,13,0.9999999999999993,-3.4694469519536167e-17,-8.32667268468868e-17
3,14,0.9999999999999993,-4.857225732735063e-17,-8.32667268468868e-17
3,15,0.9999999999999992,-2.4286128663675318e-17,-4.16333634234434e-17
3,16,0.9999999999999993,0.0,-5.551115123125786e-17
3,17,0.9999999999999993,3.4694469519536165e-18,-8.32667268468868e-17
3,18,0.9999999999999993,-3.1225022567582546e-17,-2.775557561562893e-17
3,19,0.9999999999999994,-5.551115123125786e-17,-5.551115123125786e-17
3,20,0.9999999999999993,-1.040834085586085e-17,-1.3877787807814466e-17
3,21,0.9999999999999993,3.4694469519536165e-18,-2.775557561562893e-17
3,22,0.9999999999999993,6.938893903907233e-18,-2.775557561562893e-17
3,23,0.9999999999999993,1.040834085586085e-17,-2.775557561562893e-17
3,24,0.9999999999999993,2.08166817117217e-17,-1.3877787807814466e-17
3,25,0.9999999999999993,4.857225732735063e-17,-5.551115123125786e-17
3,26,0.9999999999999993,5.204170427930425e-17,-2.775557561562893e-17
3,27,0.9999999999999993,2.775557561562893e-17,-5.551115123125786e-17
3,28,0.9999999999999993,2.775557561562893e-17,-4.16333634234434e-17
3,29,0.9999999999999993,2.775557561562893e-17,-2.775557561562893e-17
3,30,0.9999999999999993,2.775557561562893e-17,-2.775557561562893e-17
3,31,0.9999999999999993,2.08166817117217e-17,-5.551115123125786e-17
3,32,0.9999999999999993,3.1225022567582546e-17,1.3877787807814466e-17
3,33,0.9999999999999993,4.16333634234434e-17,-5.551115123125786e-17
3,34,0.9999999999999993,5.898059818321148e-17,4.16333634234434e-17
3,35,0.9999999999999993,3.816391647148978e-17,-2.775557561562893e-17
3,36,0.9999999999999993,2.775557561562893e-17,4.16333634234434e-17
3,37,0.9999999999999993,3.816391647148978e-17,-1.3877787807814466e-17
3,38,0.9999999999999993,3.1225022567582546e-17,1.3877787807814466e-17
3,39,0.9999999999999993,4.5102810375397015e-17,1.3877787807814466e-17
3,40,0.9999999999999993,7.285838599102595e-17,4.16333634234434e-17
3,41,0.9999999999999993,7.285838599102595e-17,4.16333634234434e-17
3,42,0.9999999999999993,7.285838599102595e-17,4.16333634234434e-17
3,43,0.9999999999999993,7.285838599102595e-17,4.16333634234434e-17
3,44,0.9999999999999993,7.285838599102595e-17,4.16333634234434e-17
3,45,0.9999999999999993,7.285838599102595e-17,4.16333634234434e-17
3,46,0.9999999999999993,7.285838599102595e-17,4.16333634234434e-17
3,47,0.9999999999999993,7.285838599102595e-17,4.16333634234434e-17
3,48,0.9999999999999993,7.285838599102595e-17,4.16333634234434e-17
3,49,0.9999999999999993,7.285838599102595e-17,4.16333634234434e-17
3,50,0.9999999999999993,7.285838599102595e-17,4.16333634234434e-17
3,51,0.9999999999999993,7.285838599102595e-17,4.16333634234434e-17
3,52,0.999999999999989,1.037364638634142e-15,1.0338951916821884e-14
3,53,0.9999999999997233,2.5032059758352253e-14,2.6395552410470397e-13
3,54,0.9999999999962002,3.3939170918224804e-13,3.498368261758393e-12
3,55,0.9999999999640062,3.1870929507774888e-12,3.2083183333409146e-11
3,56,0.999999999737967,2.306206615170566e-11,2.268606136874221e-10
3,57,0.9999999984441574,1.3619601648236185e-10,1.3118821605023126e-9
3,58,0.9999999921875242,6.801326707783698e-10,6.428725213545308e-9
3,59,0.9999999659983714,2.941581058001017e-9,2.7352495157946238e-8
3,60,0.999999869470346,1.120908382333184e-8,1.0279970914653899e-7
3,61,0.9999995521364328,3.8117826470054835e-8,3.457589005151536e-7
3,62,0.9999986124617471,1.1682977225858021e-7,1.0512640746832988e-6
3,63,0.9999960865147806,3.2527533814637665e-7,2.9129438862474533e-6
3,64,0.999989883905319,8.278912995190896e-7,7.404788369929156e-6
3,65,0.9999758985027629,1.936347018247555e-6,1.7365769596696135e-5
3,66,0.9999468182613775,4.179937540039833e-6,3.77545984130531e-5
3,67,0.999890848222691,8.35855109019611e-6,7.642015422412544e-5
3,68,0.9997908131214088,1.5532281018318434e-5,0.0001445762649412389
3,69,0.9996242925699894,2.6894581679775914e-5,0.0002565850107165646
3,70,0.9993654198484634,4.3495480272896495e-5,0.0004286785082889188
3,71,0.9989885738376012,6.583377820134403e-5,0.0006765663824277257
3,72,0.9984735388823129,9.340995059622396e-5,0.0010122051291270187
3,73,0.9978108962351027,0.00012438968124507113,0.0014406194270150058
3,74,0.9970060913290526,0.00015553559122410902,0.0019575444997914524
3,75,0.9960806066518475,0.0001824973660236976,0.0025490946408426394
3,76,0.9950697495133642,0.00020043412192028188,0.0031931715725897476
3,77,0.9940171705673337,0.00020481147268046758,0.0038633612256822195
3,78,0.9929679418250047,0.00019215076460603862,0.004532754413550282
3,79,0.9919613398044833,0.0001605026767774412,0.005179309509107166
3,80,0.9910260132913367,0.00010952849210290775,0.005787508898209647
3,81,0.9901770356456054,4.016616358389746e-5,0.0063522731534141575
3,82,0.9894169851899733,-4.5983740339335155e-5,0.00687530573587236
3,83,0.9887374751908096,-0.0001474253130569904,0.007368779869681099
3,84,0.9881239085463976,-0.000263496073108173,0.00784614409328205
3,85,0.9875572644075414,-0.000395037003184641,0.008330414749982896
3,86,0.9870187733299554,-0.0005449684424242426,0.008839146158777421
3,87,0.9864888853600929,-0.0007189529202201937,0.009402781448144777
3,88,0.9859506844150165,-0.0009262900519257528,0.01004090247747538
3,89,0.9853858979613865,-0.001181272901795956,0.010795694167924249
3,90,0.9847775731273933,-0.00150509287635427,0.011694475526174999
3,91,0.9841039865810646,-0.0019277842950214772,0.01280282355677259
3,92,0.9833404033409551,-0.0024889084658741892,0.014165814922170183
3,93,0.9824511735233435,-0.0032334225101055074,0.015879362326434512
3,94,0.9813890301753972,-0.004197772959538024,0.01799037299626291
3,95,0.9800860300293779,-0.00537758057400539,0.020559928542162684
3,96,0.9784527154563425,-0.006662834603629743,0.023460983996794114
3,97,0.9763869434909205,-0.007691306491523648,0.026331174789815177
3,98,0.9738385289452818,-0.007438447036426307,0.028069981371574546
3,99,0.9710359214619702,-0.002933963699025805,0.026457034562235422
3,100,0.9689167088644015,0.014219643854885533,0.01807036356589842
3,101,0.970985802697312,0.06137422972552498,0.004419133116712741
4,1,0.9999999999999993,4.16333634234434e-17,-2.775557561562893e-17
4,2,0.9999999999999993,2.775557561562893e-17,-4.16333634234434e-17
4,3,0.9999999999999993,4.857225732735063e-17,-4.16333634234434e-17
4,4,0.9999999999999992,6.938893903907235e-18,-4.16333634234434e-17
4,5,0.9999999999999993,2.08166817117217e-17,-4.16333634234434e-17
4,6,0.9999999999999993,2.08166817117217e-17,-2.775557561562893e-17
4,7,0.9999999999999994,6.938893903907233e-18,-8.326672684688679e-17
4,8,0.9999999999999994,-3.4694469519536165e-18,-5.551115123125786e-17
4,9,0.9999999999999993,-1.3877787807814466e-17,-2.775557561562893e-17
4,10,0.9999999999999993,1.7347234759768083e-17,-2.775557561562893e-17
4,11,0.9999999999999993,-4.857225732735063e-17,-2.775557561562893e-17
4,12,0.9999999999999992,-6.591949208711872e-17,-9.714451465470127e-17
4,13,0.9999999999999993,-3.816391647148978e-17,-8.32667268468868e-17
4,14,0.9999999999999993,-9.367506770274764e-17,-4.16333634234434e-17
4,15,0.9999999999999993,-2.4286128663675315e-17,-2.775557561562893e-17
4,16,0.9999999999999992,-4.8572257327350636e-17,-2.775557561562894e-17
4,17,0.9999999999999994,-2.775557561562893e-17,-1.1102230246251573e-16
4,18,0.9999999999999994,-4.510281037539701e-17,-5.551115123125786e-17
4,19,0.9999999999999994,-2.4286128663675312e-17,-4.1633363423443395e-17
4,20,0.9999999999999993,6.938893903907233e-18,-2.775557561562893e-17
4,21,0.9999999999999993,2.08166817117217e-17,-2.775557561562893e-17
4,22,0.9999999999999993,1.3877787807814466e-17,-4.16333634234434e-17
4,23,0.9999999999999993,-1.040834085586085e-17,-4.16333634234434e-17
4,24,0.9999999999999994,-3.1225022567582546e-17,-2.775557561562893e-17
4,25,0.9999999999999993,0.0,-2.775557561562893e-17
4,26,0.9999999999999993,2.4286128663675315e-17,-2.775557561562893e-17
4,27,0.9999999999999993,3.4694469519536165e-18,-5.551115123125786e-17
4,28,0.9999999999999994,-3.1225022567582546e-17,-5.551115123125786e-17
4,29,0.9999999999999994,-3.469446951953616e-17,-4.1633363423443395e-17
4,30,0.9999999999999994,-5.551115123125786e-17,-4.1633363423443395e-17
4,31,0.9999999999999993,3.4694469519536165e-18,-2.775557561562893e-17
4,32,0.9999999999999993,6.938893903907233e-18,-2.775557561562893e-17
4,33,0.9999999999999993,1.040834085586085e-17,-5.551115123125786e-17
4,34,0.9999999999999993,1.040834085586085e-17,-1.3877787807814466e-17
4,35,0.9999999999999993,1.040834085586085e-17,-5.551115123125786e-17
4,36,0.9999999999999993,1.040834085586085e-17,0.0
4,37,0.9999999999999993,1.040834085586085e-17,-4.16333634234434e-17
4,38,0.9999999999999993,1.040834085586085e-17,0.0
4,39,0.9999999999999993,1.040834085586085e-17,-2.775557561562893e-17
4,40,0.9999999999999993,1.040834085586085e-17,0.0
4,41,0.9999999999999993,1.040834085586085e-17,0.0
4,42,0.9999999999999993,1.040834085586085e-17,0.0
4,43,0.9999999999999993,1.040834085586085e-17,0.0
4,44,0.9999999999999993,1.040834085586085e-17,0.0
4,45,0.9999999999999993,1.040834085586085e-17,0.0
4,46,0.9999999999999993,1.040834085586085e-17,0.0
4,47,0.9999999999999993,1.040834085586085e-17,0.0
4,48,0.9999999999999993,1.040834085586085e-17,0.0
4,49,0.9999999999999993,1.040834085586085e-17,0.0
4,50,0.9999999999999993,1.040834085586085e-17,0.0
4,51,0.9999999999999993,1.040834085586085e-17,0.0
4,52,0.9999999999999869,7.008282842946392e-16,1.250388681484099e-14
4,53,0.9999999999996732,1.6299461780283406e-14,3.116951141636146e-13
4,54,0.9999999999955715,2.0780252518818198e-13,4.071187831318478e-12
4,55,0.9999999999585212,1.8709755967515354e-12,3.6910086100160324e-11
4,56,0.9999999997008528,1.3126548463234711e-11,2.5851437664942815e-10
4,57,0.9999999982385447,7.568264431276496e-11,1.4822560288637761e-9
4,58,0.999999991222732,3.7076553264372476e-10,7.206978632742628e-9
4,59,0.99999996207614,1.5782506907325993e-9,3.0437372041895324e-8
4,60,0.9999998554293252,5.932361335501539e-9,1.1358251310650511e-7
4,61,0.9999995073405696,1.9927976889353642e-8,3.793910411154827e-7
4,62,0.999998483922636,6.038172391454626e-8,1.1457363036209323e-6
4,63,0.9999957524166234,1.662297963384007e-7,3.153663883230776e-6
4,64,0.9999890928965489,4.18210870770765e-7,7.964469426874e-6
4,65,0.9999741851113986,9.660164265654227e-7,1.8558963562199964e-5
4,66,0.9999434111608917,2.0563482354426877e-6,4.0097206863389414e-5
4,67,0.9998846125426157,4.045756896333645e-6,8.06725958427493e-5
4,68,0.9997802898600191,7.372919028321327e-6,0.00015174315515169125
4,69,0.9996079000411083,1.2462802483710236e-5,0.00026785209513954203
4,70,0.9993418437374989,1.954873205107455e-5,0.0004453009292600538
4,71,0.99895729600213,2.8428629305693842e-5,0.0006997644338551489
4,72,0.9984353582991113,3.821341609606306e-5,0.0010431724373481915
4,73,0.9977682426610024,4.7154005549264054e-5,0.0014807332341909155
4,74,0.9969629428397724,5.263662546356214e-5,0.0020088440986545317
4,75,0.9960419551173565,5.138831397686348e-5,0.0026149337086900097
4,76,0.9950406925030932,3.987275061551468e-5,0.0032789418975660836
4,77,0.9940019062889912,1.4766985147781625e-5,0.003976948024884207
4,78,0.9929689155915127,-2.6607352893948727e-5,0.004684700021401964
4,79,0.9919788612228441,-8.605355507995662e-5,0.005382281632357895
4,80,0.991058314819087,-0.00016451350312333623,0.006055609107903431
4,81,0.9902208709335877,-0.00026237208798468115,0.00669961325665274
4,82,0.9894683109827123,-0.00037992090629000393,0.007315283723385564
4,83,0.9887923429957453,-0.000517980073473085,0.007912535340677403
4,84,0.988178894855632,-0.0006784871565596125,0.008502936413457776
4,85,0.9876100146053634,-0.0008651940694334337,0.009106195756303836
4,86,0.9870678345097521,-0.0010843346367024876,0.009738482021600138
4,87,0.986533980505717,-0.0013456332602320674,0.01042663115210288
4,88,0.9859922655135777,-0.0016635408852256328,0.01118970264990439
4,89,0.9854256227395516,-0.0020591290828269044,0.012064421824356474
4,90,0.9848181859737977,-0.0025620531158948197,0.013075466800244143
4,91,0.984150666049946,-0.003211748740319667,0.014274455184357077
4,92,0.9834021867920978,-0.004054371053713228,0.015690368262553392
4,93,0.9825450115583384,-0.0051294228057660995,0.017376797753197164
4,94,0.9815466763592697,-0.0064356906203331685,0.019318869837654302
4,95,0.9803680417823335,-0.007861583293664778,0.02145884133506563
4,96,0.9789757199175401,-0.009056633936986469,0.0235017359565933
4,97,0.9773721612055217,-0.009190233252767473,0.02486020305180455
4,98,0.9756785964371884,-0.006464430210646551,0.024338970629210536
4,99,0.9742771668910714,0.002856832369623397,0.020319775093294638
4,100,0.9739389939725469,0.02572499636273474,0.011792008074241191
4,101,0.9762393348283129,0.06998444436941376,0.0025000987160989675
5,1,0.9999999999999993,-2.4286128663675315e-17,2.775557561562893e-17
5,2,0.9999999999999993,-2.775557561562893e-17,-4.16333634234434e-17
5,3,0.9999999999999992,-2.4286128663675318e-17,-1.387778780781447e-17
5,4,0.9999999999999993,-4.16333634234434e-17,-2.775557561562893e-17
5,5,0.9999999999999993,-1.3877787807814466e-17,-2.775557561562893e-17
5,6,0.9999999999999993,6.938893903907233e-18,-4.16333634234434e-17
5,7,0.9999999999999993,-3.4694469519536167e-17,-2.775557561562893e-17
5,8,0.9999999999999992,-6.938893903907235e-18,-5.551115123125788e-17
5,9,0.9999999999999991,-3.816391647148979e-17,-2.775557561562894e-17
5,10,0.9999999999999993,-5.204170427930425e-17,-5.551115123125786e-17
5,11,0.9999999999999993,-7.979727989493318e-17,-2.775557561562893e-17
5,12,0.9999999999999991,-2.0816681711721704e-17,-6.938893903907235e-17
5,13,0.9999999999999993,-7.285838599102595e-17,-1.1102230246251573e-16
5,14,0.9999999999999993,-7.979727989493318e-17,-5.551115123125786e-17
5,15,0.9999999999999993,-2.08166817117217e-17,0.0
5,16,0.9999999999999994,-3.469446951953616e-17,-5.551115123125786e-17
5,17,0.9999999999999993,3.4694469519536165e-18,-5.551115123125786e-17
5,18,0.9999999999999993,0.0,-5.551115123125786e-17
5,19,0.9999999999999994,-6.938893903907233e-18,-5.551115123125786e-17
5,20,0.9999999999999993,-2.08166817117217e-17,-1.3877787807814466e-17
5,21,0.9999999999999993,1.040834085586085e-17,-2.775557561562893e-17
5,22,0.9999999999999992,0.0,-5.551115123125788e-17
5,23,0.9999999999999994,-3.469446951953616e-17,-6.938893903907232e-17
5,24,0.9999999999999993,3.4694469519536165e-18,-5.551115123125786e-17
5,25,0.9999999999999993,2.4286128663675315e-17,0.0
5,26,0.9999999999999993,3.4694469519536165e-18,-4.16333634234434e-17
5,27,0.9999999999999994,-3.469446951953616e-17,-8.326672684688679e-17
5,28,0.9999999999999993,0.0,-5.551115123125786e-17
5,29,0.9999999999999994,-2.775557561562893e-17,-6.938893903907232e-17
5,30,0.9999999999999993,6.938893903907233e-18,-2.775557561562893e-17
5,31,0.9999999999999993,3.4694469519536165e-18,-1.3877787807814466e-17
5,32,0.9999999999999993,6.938893903907233e-18,-2.775557561562893e-17
5,33,0.9999999999999993,3.4694469519536167e-17,-4.16333634234434e-17
5,34,0.9999999999999993,6.938893903907233e-18,-5.551115123125786e-17
5,35,0.9999999999999993,3.4694469519536167e-17,-4.16333634234434e-17
5,36,0.9999999999999993,3.4694469519536167e-17,-4.16333634234434e-17
5,37,0.9999999999999993,3.4694469519536167e-17,-4.16333634234434e-17
5,38,0.9999999999999993,6.938893903907233e-18,-4.16333634234434e-17
5,39,0.9999999999999993,3.4694469519536167e-17,-4.16333634234434e-17
5,40,0.9999999999999993,3.4694469519536167e-17,-4.16333634234434e-17
5,41,0.9999999999999993,3.4694469519536167e-17,-4.16333634234434e-17
5,42,0.9999999999999993,3.4694469519536167e-17,-4.16333634234434e-17
5,43,0.9999999999999993,3.4694469519536167e-17,-4.16333634234434e-17
5,44,0.9999999999999993,3.4694469519536167e-17,-4.16333634234434e-17