TITLE="CMs_NON_Orthogonal Re = 100.0"
VARIABLES = X,Y,Rho,U,V
ZONE
I = 101	J = 101
F=POINT
1,1,1.000478135825816,9.803280281641485e-8,1.1437780797620613e-7
1,2,1.000477546040791,5.480590792876891e-7,-6.815427300112646e-7
1,3,1.00047804356316,6.17332581559438e-7,-2.131216936424175e-6
1,4,1.00047972922726,4.601335021854863e-7,-3.406976232639073e-6
1,5,1.0004824607750005,1.795195593494686e-7,-4.037186130940859e-6
1,6,1.0004860407502196,-1.6851647067270746e-7,-3.7539784029259885e-6
1,7,1.0004902742590316,-5.525979600347646e-7,-2.4134256878536014e-6
1,8,1.000494984373863,-9.544732130118467e-7,6.342460397648771e-8
1,9,1.0005000145730665,-1.363268568285065e-6,3.7089380003196054e-6
1,10,1.0005052271994272,-1.7724654619798781e-6,8.534866532049266e-6
1,11,1.0005105008115383,-2.1781713433673972e-6,1.4532851452375901e-5
1,12,1.0005157274849124,-2.578120857871083e-6,2.1690033018592293e-5
1,13,1.000520810360631,-2.9710350150367473e-6,2.998348382624717e-5
1,14,1.000525661585129,-3.3562477828188543e-6,3.939192963703145e-5
1,15,1.0005302005877645,-3.7334366852550807e-6,4.988786799589916e-5
1,16,1.0005343527149544,-4.102483828938936e-6,6.144765334953944e-5
1,17,1.0005380481170625,-4.46335256450302e-6,7.404272369120789e-5
1,18,1.000541220902752,-4.816046470675231e-6,8.76489483736212e-5
1,19,1.0005438084565836,-5.160546704046898e-6,0.00010223755978442232
1,20,1.0005457509497944,-5.496813567716231e-6,0.00011778414383233411
1,21,1.0005469909470868,-5.824748665366655e-6,0.0001342595357229439
1,22,1.0005474731548984,-6.14421504588085e-6,0.00015163861359248615
1,23,1.0005471442200813,-6.455008801090663e-6,0.0001698912697359147
1,24,1.000545952636521,-6.7568874294326006e-6,0.0001889910731353138
1,25,1.0005438486724252,-7.049544662554941e-6,0.00020890636307851777
1,26,1.0005407843842224,-7.332642801971068e-6,0.00022960880752712884
1,27,1.0005367136316536,-7.60578858125016e-6,0.0002510646392471332
1,28,1.0005315921654514,-7.868567842920956e-6,0.00027324312295213523
1,29,1.0005253777028287,-8.120521869709443e-6,0.000296107943518574
1,30,1.0005180300654994,-8.361183771074701e-6,0.00031962559098115646
1,31,1.0005095112955065,-8.590055273135443e-6,0.00034375690622195454
1,32,1.0004997858254039,-8.806644497966645e-6,0.00036846539258052213
1,33,1.0004888206180511,-9.010443328270756e-6,0.0003937089223091306
1,34,1.000476585353304,-9.200966322698991e-6,0.0004194479841065811
1,35,1.0004630525770484,-9.377728759910596e-6,0.0004456375519987984
1,36,1.000448197889821,-9.54028642372097e-6,0.0004722352785968119
1,37,1.000432000091007,-9.688214388050677e-6,0.0004991935264175587
1,38,1.000414441355233,-9.821147395047932e-6,0.000526467516903109
1,39,1.000395507357906,-9.938759418534366e-6,0.0005540075224900525
1,40,1.00037518742545,-1.0040804361517214e-5,0.0005817669814586482
1,41,1.0003534746286005,-1.0127096435193445e-5,0.0006096948473818415
1,42,1.0003303658928575,-1.0197550940138442e-5,0.0006377436798430496
1,43,1.0003058620463599,-1.0252165530677064e-5,0.0006658621463996962
1,44,1.000279967877484,-1.0291060914742196e-5,0.0006940030993235369
1,45,1.0002526921247794,-1.0314463156196312e-5,0.0007221162241157577
1,46,1.000224047469461,-1.0322744251341434e-5,0.0007501561129511859
1,47,1.0001940504558207,-1.0316405759540678e-5,0.0007780750533844173
1,48,1.0001627214073645,-1.0296119403176809e-5,0.0008058311105029474
1,49,1.0001300842671372,-1.0262712542949077e-5,0.0008333810501739233
1,50,1.0000961664272308,-1.0217209222875874e-5,0.0008606884445302544
1,51,1.0000609984792708,-1.0160818332718982e-5,0.000887716726484074
1,52,1.000024613947546,-1.0094975919624846e-5,0.0009144373377561951
1,53,0.9999870489399652,-1.0021337348859623e-5,0.0009408229161666425
1,54,0.9999483417744471,-9.941822262063948e-6,0.000966855512867608
1,55,0.9999085325191089,-9.858612714572722e-6,0.00099251992211454
1,56,0.9998676624987585,-9.774202940276542e-6,0.0010178120058704782
1,57,0.9998257737086319,-9.691406377318143e-6,0.0010427321887335182
1,58,0.9997829081812157,-9.61341350354982e-6,0.0010672939452950414
1,59,0.9997391072484897,-9.543811980174856e-6,0.001091517502535736
1,60,0.9996944107364288,-9.486657378203835e-6,0.0011154385705319082
1,61,0.9996488560333538,-9.446512547625358e-6,0.0011391023236219141
1,62,0.9996024770564291,-9.428538282763459e-6,0.0011625724915219318
1,63,0.9995553030535608,-9.438560721672907e-6,0.00118592573277373
1,64,0.9995073572469665,-9.483192233080915e-6,0.001209261255814737
1,65,0.9994586552454003,-9.569939589457582e-6,0.0012326957593791908
1,66,0.9994092032046831,-9.707370134907867e-6,0.0012563738286865904
1,67,0.9993589956434464,-9.905279357157066e-6,0.0012804637063534793
1,68,0.9993080128534845,-1.0174924633182468e-5,0.0013051688186903022
1,69,0.9992562177752576,-1.0529279872998351e-5,0.0013307247712684364
1,70,0.9992035522155134,-1.0983370514244958e-5,0.001357412522409065
1,71,0.9991499322138454,-1.1554657415832298e-5,0.0013855571932972683
1,72,0.9990952423357429,-1.2263525490497697e-5,0.0014155436512693113
1,73,0.9990393285881107,-1.3133863534878455e-5,0.0014478180270927588
1,74,0.9989819895716167,-1.4193791486146274e-5,0.0014829068567750376
1,75,0.9989229653710798,-1.547654685062493e-5,0.0015214226875049897
1,76,0.9988619235200191,-1.702159597244321e-5,0.0015640885648050711
1,77,0.9987984411893535,-1.8876021781306722e-5,0.0016117499424221065
1,78,0.9987319824389468,-2.109628362627898e-5,0.001665407421003892
1,79,0.9986618690215983,-2.375047205100337e-5,0.0017262386913077736
1,80,0.9985872426348048,-2.6921231513633834e-5,0.0017956445273022272
1,81,0.9985070157953944,-3.070961702841488e-5,0.0018752874298602557
1,82,0.9984198073111183,-3.524024927797831e-5,0.0019671600775607715
1,83,0.9983238567147321,-4.066835333523736e-5,0.002073653429559159
1,84,0.9982169093843787,-4.718952644859141e-5,0.002197665831261714
1,85,0.9980960601831181,-5.5053601095585866e-5,0.002342726828599225
1,86,0.9979575370144482,-6.45847153219477e-5,0.002513185722017023
1,87,0.9977963953852178,-7.621105153703894e-5,0.002714449356756254
1,88,0.9976060774577379,-9.050995033259248e-5,0.0029533396013569483
1,89,0.9973777586147601,-0.00010827807685839923,0.0032385853300773908
1,90,0.9970993494764855,-0.00013064362805075247,0.0035815736791447337
1,91,0.9967539179348481,-0.00015925101748973967,0.003997465680505507
1,92,0.996317092853247,-0.0001965751489059237,0.00450696411812115
1,93,0.9957525905143604,-0.00024647492055988196,0.005139132000621152
1,94,0.9950040805501219,-0.00031520560112454303,0.005936094955208541
1,95,0.9939794199232791,-0.00041333573652677953,0.006961037277450926
1,96,0.9925176285927079,-0.00055946474806674,0.008312089981028137
1,97,0.9903125824351062,-0.0007870971154666734,0.010145635479664676
1,98,0.9867138497502244,-0.0011501397903324322,0.012705068766924935
1,99,0.9801505269986618,-0.0016280365371439277,0.01625110348905764
1,100,0.9667508203686338,-0.000783301836646547,0.0198611399955338
1,101,0.9343881836953294,0.02460181653012498,0.00980844408248307
2,1,1.000477855232456,2.3191213461712867e-6,-4.136914405752984e-8
2,2,1.0004774966357735,4.4217041066039224e-6,-1.6264844499111945e-6
2,3,1.000478080016648,4.6332194500780515e-6,-4.053609838028454e-6
2,4,1.0004796022750944,3.6146903286494866e-6,-5.802235872105825e-6
2,5,1.0004819813235533,1.8520939394112874e-6,-5.821895960334711e-6
2,6,1.0004850840059418,-3.479816669927274e-7,-3.430682779871038e-6
2,7,1.000488762245867,-2.7961824760171905e-6,1.7873717184529567e-6
2,8,1.000492870758716,-5.374882797044249e-6,1.0079239341888364e-5
2,9,1.000497274025859,-8.010491083878445e-6,2.15733236372094e-5
2,10,1.0005018482624553,-1.0656887865821165e-5,3.632861086920084e-5
2,11,1.000506481144378,-1.3285335408905891e-5,5.435136641550159e-5
2,12,1.0005110707205718,-1.5878162234404556e-5,7.562170102880948e-5
2,13,1.0005155240107793,-1.8424731966179883e-5,0.00010009548964631049
2,14,1.0005197556798642,-2.091882036307183e-5,0.0001277210003123802
2,15,1.0005236867780265,-2.3356904304810536e-5,0.0001584343278082711
2,16,1.0005272437223032,-2.5737033394813364e-5,0.00019217152266924798
2,17,1.0005303573799498,-2.8058100070363435e-5,0.00022886117382762882
2,18,1.0005329623940244,-3.0319361886985797e-5,0.0002684344674744738
2,19,1.0005349965726364,-3.2520145599902544e-5,0.00031081657685813364
2,20,1.0005364004903812,-3.465965837989547e-5,0.00035593576493459634
2,21,1.0005371171073456,-3.6736883727032594e-5,0.0004037143468132208
2,22,1.0005370915720488,-3.8750519231562856e-5,0.00045407734462366304
2,23,1.0005362710035528,-4.069895561032851e-5,0.0005069433720232247
2,24,1.0005346044373953,-4.2580269179130167e-5,0.0005622330696437778
2,25,1.0005320427215603,-4.439223703102731e-5,0.0006198600697144903
2,26,1.0005285385634766,-4.6132354287959265e-5,0.0006797393157833365
2,27,1.0005240465052339,-4.779786656967954e-5,0.0007417781813608633
2,28,1.0005185230419547,-4.938580063180026e-5,0.0008058847258971859
2,29,1.0005119266515239,-5.0893007214091875e-5,0.0008719590063210052
2,30,1.0005042179623937,-5.2316201112159314e-5,0.0009399013016492055
2,31,1.0004953598189603,-5.365201196585739e-5,0.0010096036420081049
2,32,1.0004853174812345,-5.489703234125437e-5,0.0010809580273595173
2,33,1.000474058710137,-5.604787535526873e-5,0.0011538481920621499
2,34,1.000461553983669,-5.710122994647878e-5,0.0012281578405520708
2,35,1.000447776587877,-5.8053924440274406e-5,0.0013037626613856743
2,36,1.0004327028351432,-5.8902988177029875e-5,0.0013805386010685807
2,37,1.0004163121471628,-5.964572003082636e-5,0.00145835413794493
2,38,1.0003985872613645,-6.027975544868325e-5,0.0015370786137476763
2,39,1.0003795142924783,-6.080313885872672e-5,0.0016165747742133301
2,40,1.0003590829132951,-6.121439513709183e-5,0.0016967071762205676
2,41,1.000337286381593,-6.151260489282046e-5,0.0017773349987078042
2,42,1.0003141216816938,-6.169747951151473e-5,0.0018583205417386055
2,43,1.0002895895038435,-6.176943855111103e-5,0.001939522308523163
2,44,1.000263694333467,-6.172968788970389e-5,0.002020803611854282
2,45,1.0002364443706178,-6.15802990083677e-5,0.0021020259263409835
2,46,1.0002078515544648,-6.132429048401791e-5,0.002183057618078156
2,47,1.0001779314111237,-6.0965709875065316e-5,0.00226376756636848
2,48,1.0001467030016276,-6.050971998806357e-5,0.0023440340351819303
2,49,1.000114188687121,-5.996268556026002e-5,0.0024237385667591612
2,50,1.0000804139891126,-5.9332267543375265e-5,0.0025027750196646974
2,51,1.0000454072613045,-5.862751898314961e-5,0.0025810437441969305
2,52,1.0000091994508442,-5.785899320945605e-5,0.0026584608233606367
2,53,0.9999718236653932,-5.7038856475024845e-5,0.0027349525538937444
2,54,0.9999333148226145,-5.618101970001436e-5,0.0028104649455467576
2,55,0.9998937090985518,-5.530127988128742e-5,0.0028849585543573512
2,56,0.9998530434486127,-5.441749029002346e-5,0.0029584183252393628
2,57,0.9998113549174897,-5.35497488458376e-5,0.0030308488593416747
2,58,0.9997686800067028,-5.2720628959072355e-5,0.003102284729164958
2,59,0.9997250538150628,-5.195544164814334e-5,0.00317278631409914
2,60,0.9996805092127662,-5.128255934648274e-5,0.0032424507816095722
2,61,0.9996350757615112,-5.0733790492664264e-5,0.0033114087007848265
2,62,0.9995887786291578,-5.034484277819944e-5,0.003379835975190111
2,63,0.9995416372049554,-5.015586572719015e-5,0.0034479515524407224
2,64,0.9994936636454989,-5.02121198758029e-5,0.003516030724867789
2,65,0.9994448610450914,-5.056476678292462e-5,0.0035844044065953835
2,66,0.9993952214329362,-5.127183943174021e-5,0.0036534744027543684
2,67,0.999344723268386,-5.239939396288267e-5,0.003723714943168018
2,68,0.9992933285943622,-5.402291914619932e-5,0.00379569078283371
2,69,0.9992409794806758,-5.622901651388333e-5,0.0038700619921154694
2,70,0.9991875938516717,-5.911745201053941e-5,0.003947606127334366
2,71,0.9991330602614884,-6.280361341575156e-5,0.004029227728383954
2,72,0.9990772316068506,-6.742151235642346e-5,0.004115986349943022
2,73,0.99901991722208,-7.312740409123297e-5,0.004209112889876992
2,74,0.9989608731747589,-8.010422742733214e-5,0.0043100461081781736
2,75,0.9988997899982984,-8.85670117940514e-5,0.00442045895257119
2,76,0.9988362773872937,-9.876956860859416e-5,0.004542307520304508
2,77,0.9987698447155637,-0.0001110127603675622,0.004677872250151342
2,78,0.998699876379006,-0.00012565488698614325,0.004829825510801204
2,79,0.9986256001156384,-0.0001431247862303122,0.005001295475014084
2,80,0.9985460463113014,-0.00016393864588363352,0.005195962487606422
2,81,0.9984599950406009,-0.0001887217804832481,0.005418158843267869
2,82,0.9983659068352803,-0.00021823736585103898,0.005673011563231358
2,83,0.9982618309616276,-0.00025342486277544763,0.005966601738229032
2,84,0.998145282787145,-0.00029545239539259256,0.006306186082147812
2,85,0.9980130772478658,-0.00034578929289228713,0.0067004604441855626
2,86,0.9978610995075097,-0.000406308497316342,0.007159922407115928
2,87,0.9976839830087262,-0.0004794335834457713,0.007697326228219357
2,88,0.997474648692699,-0.0005683536766573885,0.00832830913154016
2,89,0.9972236296689164,-0.0006773427059600532,0.009072208558823156
2,90,0.9969180563879727,-0.0008122408758866673,0.009953184748664872
2,91,0.9965400869488508,-0.0009811888799790903,0.011001697874777451
2,92,0.9960644035542237,-0.0011957517746397875,0.01225644816909253
2,93,0.9954540821988286,-0.0014726148856199575,0.01376666083232774
2,94,0.994653537002674,-0.0018359870307934842,0.015594114682852621
2,95,0.9935760467124792,-0.0023202622669101117,0.01781227665762962
2,96,0.9920811555122638,-0.002969290926620481,0.020493314439029717
2,97,0.9899344489788344,-0.003812525263732231,0.023650075107294957
2,98,0.9867500998882732,-0.004714964455983221,0.027014417041568897
2,99,0.982016410036628,-0.004559180426865112,0.029246542523923422
2,100,0.9758359236656204,0.0027343583859944388,0.0256681062487417
2,101,0.9728033298003561,0.04693609074844231,0.008072188964509
3,1,1.0004767426507204,3.073258980653213e-6,-5.78630327316471e-8
3,2,1.0004764874329601,6.755336520592931e-6,-1.4653821727868499e-6
3,3,1.0004771308800997,6.637605645716648e-6,-3.1120023592642537e-6
3,4,1.0004785823927316,3.888070191060078e-6,-3.2660964465165977e-6
3,5,1.0004807541784813,-5.839821422833431e-7,-6.614695586346752e-7
3,6,1.0004835384205581,-6.141545185319052e-6,5.6014850490342124e-6
3,7,1.0004868165514083,-1.2356652920942234e-5,1.6124850843133477e-5
3,8,1.0004904683317322,-1.894595449048079e-5,3.1297282261988355e-5
3,9,1.0004943774734403,-2.5722916836947273e-5,5.134631742515491e-5
3,10,1.0004984343636705,-3.25653223161463e-5,7.639450627191784e-5
3,11,1.000502536929529,-3.9393632828904866e-5,0.00010648400895408185
3,12,1.000506590564429,-4.61565830035105e-5,0.00014160990113285752
3,13,1.0005105075310317,-5.282152561556362e-5,0.00018172765311644362
3,14,1.0005142062360046,-5.936792777477347e-5,0.00022677380974475166
3,15,1.0005176104148796,-6.578297659021831e-5,0.00027666457787642356
3,16,1.0005206484325249,-7.205861710889412e-5,0.0003313100478838314
3,17,1.0005232525985999,-7.818956361352043e-5,0.0003906084142547538
3,18,1.0005253586565894,-8.417198046238167e-5,0.0004544569847440703
3,19,1.00052690529054,-9.000261591844763e-5,0.0005227443681184774
3,20,1.0005278338083294,-9.567824894922841e-5,0.0005953599157108426
3,21,1.0005280878178824,-0.00010119534282411733,0.0006721850466091601
3,22,1.00052761307029,-0.00010654984370219517,0.0007531019327713898
3,23,1.000526357267457,-0.00011173707094516651,0.0008379845345155336
3,24,1.0005242700273647,-0.00011675167599212237,0.0009267069214779367
3,25,1.0005213027884388,-0.00012158764152311347,0.0010191342961458996
3,26,1.0005174088655484,-0.00012623831661358442,0.001115131142403413
3,27,1.0005125434235973,-0.0001306964704699848,0.0012145523760261111
3,28,1.0005066635997868,-0.000134954369392211,0.0013172514220131603
3,29,1.0004997285250883,-0.00013900386344706692,0.0014230715685865313
3,30,1.000491699493439,-0.0001428364917286966,0.0015318540357557155
3,31,1.0004825400138555,-0.00014644359339063354,0.0016434295816428245
3,32,1.0004722160103658,-0.0001498164355183223,0.0017576266083121886
3,33,1.0004606958898672,-0.00015294634441105086,0.0018742630558533301
3,34,1.0004479507582391,-0.00015582485277549263,0.0019931545837384946
3,35,1.0004339544901597,-0.0001584438483229164,0.0021141067800428343
3,36,1.0004186839475788,-0.0001607957374822175,0.00223692345175456
3,37,1.0004021190381376,-0.00016287360853338485,0.002361399170287993
3,38,1.0003842429224135,-0.00016467140906790303,0.00248732770022381
3,39,1.0003650420477528,-0.00016618412092088807,0.0026144948967641943
3,40,1.000344506330789,-0.00016740794873708076,0.0027426872988477054
3,41,1.0003226291535974,-0.00016834050424712442,0.002871685389304272
3,42,1.0002994075081695,-0.00016898100378696216,0.0030012723753465947
3,43,1.0002748419420318,-0.0001693304602146241,0.0031312278182837453
3,44,1.0002489366516645,-0.00016939188828987006,0.003261336622614987
3,45,1.0002216993651438,-0.00016917050396079007,0.003391383039965908
3,46,1.0001931413719634,-0.00016867393839305504,0.0035211598883157207
3,47,1.0001632773307743,-0.0001679124467551028,0.003650462935415925
3,48,1.0001321252235638,-0.0001668991346841875,0.003779100373380143
3,49,1.0000997060769787,-0.00016565018240646817,0.0039068875917511675
3,50,1.0000660438290567,-0.00016418509193736995,0.0040336569415569444
3,51,1.0000311649525622,-0.0001625269378085602,0.004159252919441148
3,52,0.9999950982219503,-0.0001607026498041871,0.004283542271713836
3,53,0.9999578742259833,-0.00015874330929227791,0.004406409631222121
3,54,0.9999195250205872,-0.00015668449143186347,0.004527768038981224
3,55,0.9998800835148325,-0.00015456663686414822,0.004647555108223785
3,56,0.9998395829906319,-0.00015243548996205956,0.004765744082890712
3,57,0.9997980563395036,-0.00015034259044981353,0.004882340653093225
3,58,0.9997555354209351,-0.0001483458616191135,0.004997394731277899
3,59,0.9997120501150734,-0.0001465102867627417,0.00511099811606966
3,60,0.999667627475376,-0.00014490872507529566,0.005223297255123026
3,61,0.999622290541199,-0.00014362286567009947,0.005334492057730713
3,62,0.9995760572130387,-0.00014274438161436718,0.005444850037157505
3,63,0.9995289387338648,-0.00014237629278049488,0.005554706716710487
3,64,0.9994809381704773,-0.0001426346138374739,0.005664481715541494
3,65,0.9994320484153982,-0.00014365031085937516,0.005774681391641497
3,66,0.9993822500855689,-0.0001455716628685207,0.00588591766948757
3,67,0.9993315088048864,-0.00014856707330387865,0.00599891383496283
3,68,0.9992797722153377,-0.00015282845636238848,0.006114527222408085
3,69,0.9992269661528177,-0.00015857527559194715,0.00623375944626573
3,70,0.9991729902786918,-0.00016605940248803834,0.006357784499723424
3,71,0.9991177125229938,-0.00017557092330449357,0.006487965213033982
3,72,0.999060962539812,-0.00018744512941832152,0.00662588891189537
3,73,0.9990025234006716,-0.0002020709036234234,0.006773392590148815
3,74,0.998942121572579,-0.0002199008513078273,0.00693260910610704
3,75,0.9988794141886855,-0.0002414635366904774,0.007106004540783755
3,76,0.998813973390612,-0.0002673783763935175,0.007296439094935234
3,77,0.9987452663719085,-0.0002983738249171268,0.007507221528156927
3,78,0.9986726304199636,-0.00033530978851711326,0.007742190656846909
3,79,0.9985952408992121,-0.00037920543497367196,0.008005793881683728
3,80,0.998512070566639,-0.0004312740919581414,0.008303197771761563
3,81,0.9984218368523581,-0.0004929674685511311,0.008640400805295266
3,82,0.9983229337003681,-0.0005660324159907757,0.009024385223168714
3,83,0.998213341957865,-0.0006525846227590884,0.009463278254311423
3,84,0.9980905111418461,-0.0007552055237711525,0.00996656158740727
3,85,0.9979512009061368,-0.0008770710930364952,0.010545298268559414
3,86,0.9977912666691198,-0.0010221246204152137,0.011212414874419417
3,87,0.9976053648641945,-0.001195309620404792,0.011982999073642812
3,88,0.9973865426850952,-0.0014028833981503772,0.012874631697574055
3,89,0.9971256572241711,-0.0016528333844649979,0.013907663851708987
3,90,0.9968105417042413,-0.001955409094351638,0.015105350333398302
3,91,0.9964247911356936,-0.0023237371916641322,0.016493500219863323
3,92,0.9959459790202575,-0.0027743342965264243,0.01809899671910479
3,93,0.9953430411170069,-0.0033268612304617065,0.01994555501043084
3,94,0.9945725423833119,-0.004001039536170668,0.022043054948072478
3,95,0.9935738605172341,-0.004804282725393113,0.024361613603877518
3,96,0.9922651551949759,-0.00568974670882115,0.02676944731682567
3,97,0.9905497114611055,-0.006419287672704859,0.028885843310594208
3,98,0.9883696000601677,-0.006119674609603173,0.029754862505372178
3,99,0.9859142187219755,-0.0019050596711861773,0.02728935046331525
3,100,0.9840639479846747,0.014734583065664027,0.018314942719050223
3,101,0.9863169743729102,0.06151357501731224,0.00442210922386305
4,1,1.0004746103268984,5.324039605757801e-6,1.0527025815150163e-7
4,2,1.0004745814943325,9.870640918294962e-6,-3.291027372794941e-7
4,3,1.0004753554933603,8.56715036392009e-6,-3.2339376498999745e-8
4,4,1.0004768235177066,3.1234206926335545e-6,2.761892483209908e-6
4,5,1.0004788970163847,-5.15454356619757e-6,9.372926332750975e-6
4,6,1.0004814825413124,-1.5307476466943395e-5,2.0782353376110917e-5
4,7,1.0004844813146088,-2.665314864564012e-5,3.7687881946214485e-5
4,8,1.0004877925085462,-3.871590722673122e-5,6.056932111228456e-5
4,9,1.0004913164889258,-5.116827419880505e-5,8.973061858072116e-5
4,10,1.0004949570438508,-6.378691738244909e-5,0.00012535230662325008
4,11,1.0004986225274712,-7.642084827317684e-5,0.0001675166374115461
4,12,1.0005022263031393,-8.896886800128411e-5,0.00021624288643991285
4,13,1.0005056866672755,-0.00010136369523290396,0.00027149760065325917
4,14,1.000508926580806,-0.0001135608450677961,0.0003332176611899253
4,15,1.0005118732183425,-0.00012553086829610488,0.00040131118613217966
4,16,1.0005144575594394,-0.00013725396656508976,0.00047567337608261104
4,17,1.0005166139194581,-0.0001487162826609557,0.0005561822553035184
4,18,1.0005182796088656,-0.00015990737120515655,0.0006427105822912485
4,19,1.0005193945584838,-0.00017081849410918438,0.0007351189536535697
4,20,1.0005199011001091,-0.00018144149280294923,0.0008332656574883119
4,21,1.0005197437039093,-0.00019176805737954256,0.0009369985351742257
4,22,1.000518868877628,-0.00020178927252100423,0.0010461637850930484
4,23,1.0005172250024572,-0.00021149535110926264,0.001160597317624616
4,24,1.0005147623317883,-0.00022087550164076638,0.0012801330321450264
4,25,1.0005114329047224,-0.00022991788589322082,0.001404594045829751
4,26,1.0005071906233705,-0.00023860964613308617,0.0015338007165043
4,27,1.0005019912240507,-0.00024693697960489764,0.0016675619471236327
4,28,1.0004957924143143,-0.00025488525533776617,0.0018056831055587822
4,29,1.0004885538845099,-0.00026243915983414077,0.0019479575206623988
4,30,1.0004802374882353,-0.0002695828738130519,0.002094174393580175
4,31,1.0004708072791972,-0.00027630026945923373,0.0022441105603042593
4,32,1.0004602297205811,-0.0002825751336105584,0.0023975384626973868
4,33,1.0004484737334827,-0.0002883914066640614,0.0025542182314909983
4,34,1.0004355109216425,-0.00029373344435370164,0.002713905771599738
4,35,1.0004213156183654,-0.0002985862915441648,0.002876345206906036
4,36,1.0004058651134013,-0.0003029359764133274,0.003041277125902861
4,37,1.0003891396854478,-0.00030676981324150054,0.003208431420366112
4,38,1.0003711228179863,-0.00031007672332603487,0.0033775357308404577
4,39,1.000351801204448,-0.0003128475612929423,0.0035483087036347243
4,40,1.0003311649397812,-0.000315075457568352,0.0037204686702252453
4,41,1.0003092074853515,-0.00031675616346038587,0.0038937273405183254
4,42,1.000285925823057,-0.0003178884110514977,0.004067798745895352
4,43,1.0002613203671833,-0.0003184742737565995,0.004242393381662384
4,44,1.000235395068087,-0.0003185195414934021,0.004417227440757165
4,45,1.0002081572585237,-0.0003180340960584855,0.004592017415500872
4,46,1.000179617694269,-0.00031703230282754166,0.004766489648924856
4,47,1.0001497903228278,-0.00031553340459653385,0.004940375406564578
4,48,1.0001186922487109,-0.0003135619364189644,0.005113420776427108
4,49,1.0000863434126814,-0.0003111481481292453,0.0052853822273258655
4,50,1.0000527664694614,-0.0003083284568978254,0.005456036898707309
4,51,1.0000179863654106,-0.00030514591823214466,0.005625178675223715
4,52,0.9999820301156915,-0.00030165074224016656,0.005792628926605062
4,53,0.999944926266874,-0.0002979008464077129,0.00595823315174253
4,54,0.9999067045582883,-0.00029396247745235623,0.006121872259903825
4,55,0.9998673952525681,-0.0002899108977980078,0.006283459875301835
4,56,0.999827028660927,-0.0002858311766447405,0.006442954298409034
4,57,0.9997856343176754,-0.00028181908737800847,0.006600356618464015
4,58,0.9997432403397533,-0.00027798216090810034,0.006755723562651388
4,59,0.9996998724087347,-0.00027444090540025193,0.006909166644956353
4,60,0.9996555529185807,-0.0002713302545271375,0.007060866207859037
4,61,0.9996102997074188,-0.000268801266784097,0.007211071948218327
4,62,0.999564124920301,-0.0002670231544611838,0.0073601185883413875
4,63,0.9995170333983232,-0.0002661856814287278,0.007508428271096176
4,64,0.99946902113922,-0.000266502030134393,0.007656528473184792
4,65,0.9994200731957132,-0.0002682121998284013,0.007805056961082904
4,66,0.9993701615466719,-0.00027158706567723866,0.007954782787862236
4,67,0.9993192422681053,-0.000276933192523066,0.008106614757220522
4,68,0.9992672525163322,-0.0002845985730587421,0.008261626633931938
4,69,0.9992141065945461,-0.00029497942918951906,0.008421070381113253
4,70,0.9991596915723311,-0.00030852830315672306,0.008586407066698139
4,71,0.9991038616463377,-0.0003257636433281923,0.008759326517976583
4,72,0.9990464316360682,-0.0003472811954552749,0.008941785814379152
4,73,0.998987168674548,-0.00037376750623839013,0.009136037424035764
4,74,0.9989257823568035,-0.0004060159818899829,0.009344677600443087
4,75,0.9988619121998724,-0.0004449459740771691,0.009570685464237066
4,76,0.9987951124494734,-0.0004916255534584381,0.00981748395972438
4,77,0.9987248327443994,-0.0005472987234301512,0.010088992539228478
4,78,0.9986503942711433,-0.0006134181046561171,0.010389703281100905
4,79,0.9985709593287496,-0.0006916843228393053,0.010724749311957424
4,80,0.9984854932070983,-0.0007840937533502988,0.011099997373856307
4,81,0.9983927152414319,-0.000892996635307464,0.011522131395941439
4,82,0.9982910365896984,-0.0010211681450784415,0.011998757656982738
4,83,0.9981784796440398,-0.0011718954424119403,0.012538493500038172
4,84,0.9980525740497699,-0.0013490840760991534,0.013151064331100316
4,85,0.9979102205856405,-0.001557386637756657,0.01384735717039309
4,86,0.9977475130352562,-0.0018023543146779132,0.014639434410563304
4,87,0.997559502679996,-0.0020906049772807596,0.01554041375526603
4,88,0.9973398872926246,-0.00242998382839058,0.016564144833856122
4,89,0.9970805997199111,-0.0028296501070218913,0.01772444726384405
4,90,0.9967712706484194,-0.0032999239192344643,0.01903358039746493
4,91,0.9963985455183243,-0.0038514946995811513,0.020499205554418778
4,92,0.9959452774878108,-0.0044930448770746,0.02211854537412683
4,93,0.9953897484274419,-0.005225029135816452,0.02386711583950842
4,94,0.994705461707682,-0.0060241412488496624,0.02567711579763951
4,95,0.9938631266806959,-0.006805030498423024,0.027396162409847533
4,96,0.9928392824690188,-0.007326021637704407,0.0287108234164933
4,97,0.9916426195681499,-0.006958491271805816,0.029017069924972737
4,98,0.9903802765941699,-0.004145166441114145,0.02725839400193886
4,99,0.9893860134529622,0.004710295178692947,0.021968795420394118
4,100,0.9893547850462469,0.026687616467117283,0.012437507538285573
4,101,0.9918990168491654,0.07007735820530307,0.002552306445506983
5,1,1.0004715359229748,5.1628859897284924e-6,3.778592880365853e-7
5,2,1.0004718706128153,9.405169383464847e-6,1.4384126404040468e-6
5,3,1.000472868327317,5.824432788260859e-6,4.47465408581218e-6
5,4,1.0004744406147121,-3.390828271419458e-6,1.1137216832658435e-5
5,5,1.0004765095878714,-1.657737403725875e-5,2.2700966931640285e-5
5,6,1.0004789956518192,-3.248414867142029e-5,4.0146084584088016e-5
5,7,1.0004818160381066,-5.018857399909477e-5,6.419823368055806e-5
5,8,1.000484885856428,-6.902223634449456e-5,9.538001611682268e-5
5,9,1.0004881198739384,-8.850772998274242e-5,0.00013404145194123959
5,10,1.0004914341366518,-0.00010830802751582825,0.00018040476817678212
5,11,1.000494747052788,-0.0001281875461703758,0.00023458592139126699
5,12,1.0004979800491074,-0.00014798298554307508,0.0002966284234288717
5,13,1.000501057799996,-0.00016758184867108692,0.0003665138838909847
5,14,1.0005039082759968,-0.00018690681193984416,0.0004441857041476125
5,15,1.000506462573269,-0.00020590446334073256,0.0005295512217371298
5,16,1.0005086547467885,-0.0002245372664502441,0.0006224984544578876
5,17,1.0005104215318827,-0.00024277788124551066,0.0007228930010493337
5,18,1.0005117021616823,-0.0002606051949369714,0.0008305906034931554
5,19,1.0005124381086894,-0.0002780015796516342,0.0009454311154331564
5,20,1.0005125729634703,-0.0002949510270245914,0.0010672487119428072
5,21,1.0005120522384117,-0.0003114379011093687,0.0011958643544641133
5,22,1.000510823327113,-0.00032744612995437854,0.0013310947250117688
5,23,1.0005088353753235,-0.00034295870315951676,0.0014727440025320531
5,24,1.0005060393173009,-0.00035795738960768,0.001620612122163858
5,25,1.0005023878051291,-0.00037242260959086153,0.0017744863131852414
5,26,1.0004978353105312,-0.00038633342439119633,0.001934149016303846
5,27,1.0004923380998205,-0.00039966761048619847,0.002099369435714262
5,28,1.000485854387947,-0.00041240180521844223,0.0022699113082193284
5,29,1.0004783443459309,-0.0004245117057675223,0.0024455246205726906
5,30,1.000469770294097,-0.0004359723191012984,0.0026259533549244387
5,31,1.0004600967293114,-0.00044675825039071457,0.0028109274711828453
5,32,1.000449290544794,-0.00045684403233390046,0.003000170718466519
5,33,1.0004373210648345,-0.00046620448448901646,0.0031933929545503318
5,34,1.0004241602787667,-0.0004748151072958295,0.003390298093954808
5,35,1.0004097828709058,-0.00048265249990765913,0.0035905768195351935
5,36,1.000394166456172,-0.0004896948078397795,0.003793914725648331