TITLE="CMs_NON_Orthogonal Re = 100.0"
VARIABLES = X,Y,Rho,U,V
ZONE
I = 101	J = 101
F=POINT
1,1,1.0004622015886036,-7.98044137477694e-9,-2.1611973942437458e-7
1,2,1.0004620589873758,2.9746924956675774e-7,-1.3048634500759341e-6
1,3,1.000462906566203,3.369759767023932e-7,-2.858642882565591e-6
1,4,1.0004648867134787,1.7111209695991598e-7,-4.182945795230591e-6
1,5,1.000467888527868,-1.1230053137952414e-7,-4.8341699925530225e-6
1,6,1.0004717292951584,-4.6015308443478166e-7,-4.55788033275555e-6
1,7,1.0004762216933312,-8.422339773530992e-7,-3.2130166661813215e-6
1,8,1.0004811932308133,-1.2410307980840665e-6,-7.252595584091145e-7
1,9,1.0004864900959436,-1.6461592549000136e-6,2.9397276442626597e-6
1,10,1.0004919761546625,-2.051378833676156e-6,7.79206785229847e-6
1,11,1.000497530604303,-2.45292604264895e-6,1.3827034997714047e-5
1,12,1.0005030454729542,-2.848546208195861e-6,2.1030881777223118e-5
1,13,1.0005084233547419,-3.236910853342599e-6,2.9384352112771993e-5
1,14,1.000513575485715,-3.617258587393094e-6,3.88649552644776e-5
1,15,1.0005184201579855,-3.989168429314286e-6,4.94482715379727e-5
1,16,1.0005228814363123,-4.352415306068555e-6,6.11088251566598e-5
1,17,1.000526888131842,-4.7068764683674e-6,7.382049081476625e-5
1,18,1.0005303729912032,-5.052471331283021e-6,8.755678110873284e-5
1,19,1.0005332720632971,-5.389122432485196e-6,0.00010229087364744875
1,20,1.0005355242133576,-5.716731101784879e-6,0.00011799565073694629
1,21,1.000537070758129,-6.035162306351807e-6,0.00013464356985200653
1,22,1.0005378552018986,-6.3442364661344505e-6,0.00015220660483170225
1,23,1.0005378230557873,-6.643725348320883e-6,0.00017065606099226873
1,24,1.0005369217270197,-6.933351570237899e-6,0.00018996248749034847
1,25,1.0005351004661236,-7.212789915202175e-6,0.00021009548570135157
1,26,1.0005323103632273,-7.481670765847071e-6,0.00023102362721461026
1,27,1.0005285043848413,-7.739584313248307e-6,0.00025271428046930096
1,28,1.0005236374450024,-7.98608622540775e-6,0.00027513355288061043
1,29,1.0005176665042186,-8.220703605183264e-6,0.00029824614993197146
1,30,1.0005105506917027,-8.442942121448877e-6,0.0003220153525966192
1,31,1.0005022514454833,-8.65229318957814e-6,0.0003464029181083786
1,32,1.0004927326668065,-8.848242204974281e-6,0.00037136910041005085
1,33,1.000481960884011,-9.03027668353834e-6,0.0003968725994521122
1,34,1.0004699054227941,-9.197895404226582e-6,0.00042287063068121905
1,35,1.0004565385783264,-9.350617348384548e-6,0.00044931892842945293
1,36,1.0004418357863933,-9.487991613725181e-6,0.0004761718694068949
1,37,1.0004257757891344,-9.609607018279787e-6,0.0005033825348480609
1,38,1.0004083407927074,-9.715102656937692e-6,0.0005309028921149035
1,39,1.0003895166124883,-9.804178039026589e-6,0.0005586839194618946
1,40,1.0003692928032917,-9.876604161404671e-6,0.0005866758490262806
1,41,1.0003476627702472,-9.93223405297515e-6,0.0006148283572899214
1,42,1.0003246238580166,-9.971014260236074e-6,0.0006430908719514158
1,43,1.0003001774140738,-9.992995704160819e-6,0.0006714128304911573
1,44,1.0002743288240064,-9.998345527845253e-6,0.0006997440528285647
1,45,1.000247087514686,-9.98735825278651e-6,0.0007280350700449384
1,46,1.000218466923633,-9.96046804439194e-6,0.0007562375645920981
1,47,1.0001884844305913,-9.918260297120107e-6,0.000784304771514156
1,48,1.0001571612500413,-9.861484559190552e-6,0.0008121919886635234
1,49,1.0001245222808006,-9.791066897907032e-6,0.0008398570541275221
1,50,1.0000905959118356,-9.70812400815698e-6,0.0008672609309284014
1,51,1.0000554137804316,-9.613977047752541e-6,0.0008943682673855577
1,52,1.0000190104820619,-9.51016786157776e-6,0.0009211480648004522
1,53,0.9999814232278155,-9.39847546304245e-6,0.0009475743329337051
1,54,0.9999426914485618,-9.280935887567101e-6,0.0009736268560851364
1,55,0.9999028563408495,-9.159863181397509e-6,0.0009992919647771813
1,56,0.9998619603528786,-9.037875215747872e-6,0.0010245634266158946
1,57,0.9998200466036806,-8.917922006554226e-6,0.0010494433690344807
1,58,0.999777158231846,-8.803320963237793e-6,0.0010739433380039076
1,59,0.9997333376634548,-8.697796712896865e-6,0.0010980854272302717
1,60,0.9996886257916285,-8.605530873009855e-6,0.001121903572440452
1,61,0.9996430610512899,-8.531219460471941e-6,0.0011454449724707593
1,62,0.9995966783745268,-8.48014456682694e-6,0.0011687717227299214
1,63,0.9995495079999916,-8.458258163377138e-6,0.0011919626570733581
1,64,0.9995015741096925,-8.47228635086141e-6,0.0012151154758814774
1,65,0.9994528932499335,-8.529852337149935e-6,0.0012383492002707064
1,66,0.9994034724896944,-8.639628768580304e-6,0.0012618070250876288
1,67,0.9993533072460304,-8.811518543537462e-6,0.0012856596676830113
1,68,0.9993023786966679,-9.056878016105076e-6,0.0013101092850299385
1,69,0.9992506506651361,-9.388783336187832e-6,0.0013353941319549439
1,70,0.9991980658439773,-9.822358697119647e-6,0.0013617940424692546
1,71,0.9991445411688521,-1.0375170335874474e-5,0.0013896370104494469
1,72,0.9990899621181726,-1.1067712665902556e-5,0.0014193069790546973
1,73,0.9990341756304087,-1.192399644214341e-5,0.001451253262030723
1,74,0.9989769812597549,-1.297227807306436e-5,0.001486001768567596
1,75,0.9989181200565648,-1.4245952184554524e-5,0.0015241686745109976
1,76,0.9988572605251269,-1.5784669511340136e-5,0.0015664768439682222
1,77,0.9987939807817479,-1.7635727760202046e-5,0.0016137759949483097
1,78,0.9987277457794428,-1.9855842114950616e-5,0.001667067191800766
1,79,0.998657878048485,-2.2513398691237318e-5,0.0017275332636256912
1,80,0.9985835198880959,-2.5691390601684476e-5,0.0017965763281077175
1,81,0.9985035841300853,-2.949126659379197e-5,0.00187586515545911
1,82,0.9984166895023332,-3.4038099465683325e-5,0.0019673948691085346
1,83,0.9983210748899837,-3.948760678102112e-5,0.0020735640310638134
1,84,0.9982144842877443,-4.603592719308864e-5,0.002197274636335917
1,85,0.9980940101983032,-5.393345095657317e-5,0.002342065173121693
1,86,0.9979558769615349,-6.350488638070158e-5,0.0025122895934727766
1,87,0.9977951350265226,-7.517894616161042e-5,0.002713364587478594
1,88,0.9976052197571762,-8.953343325647899e-5,0.0029521168587315276
1,89,0.9973772977339862,-0.00010736533084979339,0.0032372847649683677
1,90,0.9970992686228022,-0.00012980294180153928,0.0035802585761053004
1,91,0.9967541871752285,-0.00015849047914163244,0.003996205837017968
1,92,0.9963176671540835,-0.00019590221652073458,0.004505827295272279
1,93,0.9957534084119493,-0.0002458959251969705,0.005138185078460089
1,94,0.9950050639497392,-0.00031472507519598997,0.00593539239981344
1,95,0.9939804759771534,-0.0004129558714649247,0.006960619400457328
1,96,0.9925186543093985,-0.0005591846862406706,0.008311969081990615
1,97,0.9903134736769935,-0.0007869130943820585,0.01014579261604359
1,98,0.9867145138542582,-0.0011500450781154448,0.012705443845923932
1,99,0.9801508986972091,-0.0016280251259043414,0.016251597420547315
1,100,0.9667508670724706,-0.0007833578143453235,0.019861622235013445
1,101,0.9343879120348777,0.024601773841862348,0.009808713255959986
2,1,1.0004623444815002,1.5279507427014422e-6,-5.207009306104455e-7
2,2,1.0004622023296783,3.0553496725843888e-6,-2.827237183887992e-6
2,3,1.0004630357248463,3.0529439014034807e-6,-5.639558105059973e-6
2,4,1.0004648106147846,1.9345154059720543e-6,-7.582800666313594e-6
2,5,1.0004674391455528,1.1592284207153158e-7,-7.690352520436552e-6
2,6,1.0004707904687358,-2.119758555718661e-6,-5.326068045013889e-6
2,7,1.0004747194290444,-4.593911380322212e-6,-9.354032705280753e-8
2,8,1.0004790829690187,-7.195054929360765e-6,8.241388191829814e-6
2,9,1.0004837470726038,-9.85331205020911e-6,1.9805729414382445e-5
2,10,1.0004885888029127,-1.2524653652093736e-5,3.4656328656142254e-5
2,11,1.0004934961453582,-1.5181283108655706e-5,5.280408145067227e-5
2,12,1.0004983669843832,-1.780569280625144e-5,7.422991121601493e-5
2,13,1.0005031078220747,-2.038692529815226e-5,9.889515365910395e-5
2,14,1.00050763251031,-2.2918180422418203e-5,0.00012674845237470778
2,15,1.0005118611052848,-2.5395261513908778e-5,0.0001577301487973203
2,16,1.0005157188823588,-2.781555480549585e-5,0.0001917751854813926
2,17,1.0005191355124987,-3.0177354187844868e-5,0.00022881481950315317
2,18,1.0005220443902028,-3.247941306498519e-5,0.0002687777180806007
2,19,1.000524382094833,-3.4720647998929844e-5,0.00031159045069284214
2,20,1.0005260879693205,-3.689994491601129e-5,0.00035717775827986633
2,21,1.000527103798372,-3.901603571457235e-5,0.00040546249339503705
2,22,1.0005273735730453,-4.1067423561370024e-5,0.0004563655247483321
2,23,1.0005268433274348,-4.305234252374749e-5,0.0005098054475508424
2,24,1.0005254610380852,-4.496874154454449e-5,0.000565698350733861
2,25,1.0005231765751794,-4.681428619763382e-5,0.0006239574599741205
2,26,1.0005199416991055,-4.858637347406584e-5,0.000684492885325633
2,27,1.0005157100937527,-5.0282156589746714e-5,0.000747211283755581
2,28,1.0005104374322364,-5.1898577485899964e-5,0.0008120156524165612
2,29,1.0005040814678507,-5.34324056640685e-5,0.0008788050609455004
2,30,1.0004966021472859,-5.488028215047665e-5,0.0009474745299978152
2,31,1.0004879617397446,-5.6238767996146664e-5,0.0010179148655570405
2,32,1.0004781249798407,-5.750439661003391e-5,0.0010900126495670109
2,33,1.0004670592182812,-5.867372966922412e-5,0.0011636501993198204
2,34,1.0004547345787562,-5.974341610718576e-5,0.0012387056902555323
2,35,1.000441124115158,-6.0710254054901194e-5,0.0013150532583660703
2,36,1.0004262039678782,-6.157125530098104e-5,0.001392563271147204
2,37,1.0004099535132782,-6.23237121895193e-5,0.0014711025875605056
2,38,1.000392355505352,-6.296526652987736e-5,0.0015505349901174914
2,39,1.00037339620357,-6.34939804652621e-5,0.0016307216142199498
2,40,1.0003530654861796,-6.390840887640085e-5,0.0017115215517893112
2,41,1.0003313569428631,-6.420767331732266e-5,0.0017927924594351562
2,42,1.0003082679463144,-6.439153710773456e-5,0.001874391341837291
2,43,1.0002837996965728,-6.446048167693391e-5,0.001956175346306381
2,44,1.0002579572380494,-6.441578389915419e-5,0.002038002732603104
2,45,1.0002307494430296,-6.425959471221366e-5,0.0021197338605515263
2,46,1.0002021889620334,-6.399501896595996e-5,0.0022012323527896365
2,47,1.0001722921347613,-6.362619711467833e-5,0.002282366282977891
2,48,1.0001410788624945,-6.315838903804782e-5,0.0023630095400826437
2,49,1.0001085724355234,-6.259806109937835e-5,0.002443043228519555
2,50,1.0000747993169175,-6.195297722778829e-5,0.002522357248289009
2,51,1.000039788875868,-6.123229584823206e-5,0.002600851926624186
2,52,1.000003573072161,-6.044667418507316e-5,0.0026784398393496743
2,53,0.999966186084272,-5.9608382756620414e-5,0.002755047708250879
2,54,0.9999276638824832,-5.8731432632828316e-5,0.002830618507690971
2,55,0.999888043738086,-5.78317196583544e-5,0.002905113685601437
2,56,0.9998473636691689,-5.6927189671360756e-5,0.0029785156286880857
2,57,0.9998056618114904,-5.6038030828670984e-5,0.0030508303011498043
2,58,0.9997629757127858,-5.518689910749799e-5,0.0031220901857725034
2,59,0.9997193415346484,-5.4399185723293636e-5,0.003192357487939618
2,60,0.9996747931561292,-5.3703335391447624e-5,0.0032617277340617344
2,61,0.9996293611560114,-5.313122782965598e-5,0.0033303337656242445
2,62,0.9995830716604365,-5.271863545160248e-5,0.003398350268353809
2,63,0.9995359450211844,-5.250577479045985e-5,0.0034659988909851915
2,64,0.9994879942986077,-5.25379703591745e-5,0.003533554109066559
2,65,0.999439223495865,-5.2866455829321186e-5,0.0036013499586956283
2,66,0.9993896254973541,-5.354933963445869e-5,0.0036697878234164534
2,67,0.9993391796281813,-5.465277064671192e-5,0.0037393454932703124
2,68,0.9992878487528187,-5.6252343661656644e-5,0.0038105877250470535
2,69,0.9992355757818847,-5.8434796697970816e-5,0.0038841786505389273
2,70,0.9991822794479474,-6.130005965024812e-5,0.0039608963359395975
2,71,0.9991278491413998,-6.496373239025431e-5,0.004041650016953943
2,72,0.9990721385720107,-6.956008460096357e-5,0.004127500433263385
2,73,0.9990149579182238,-7.524569956222534e-5,0.00421968404277743
2,74,0.9989560640680825,-8.220391175525266e-5,0.004319641740204533
2,75,0.9988951483943984,-9.065024004394121e-5,0.00442905324638618
2,76,0.9988318213854255,-0.00010083907414534899,0.004549878141139937
2,77,0.9987655931861882,-0.00011307196884001725,0.004684405323771751
2,78,0.9986958488575159,-0.00012770801783444662,0.004835312506443484
2,79,0.9986218166901859,-0.00014517697210677716,0.005005738580350421
2,80,0.9985425273958959,-0.00016599602303223884,0.005199371663944969
2,81,0.9984567611021069,-0.00019079157886820564,0.005420557598191249
2,82,0.998362977961939,-0.00022032793890745673,0.005674434086667922
2,83,0.9982592263365355,-0.0002555456811149354,0.005967098954220254
2,84,0.9981430199500174,-0.0002976139263565488,0.006305822605827263
2,85,0.998011171214166,-0.00034800278226134124,0.006699320581117873
2,86,0.9978595616263244,-0.0004085855521891711,0.007158106391099664
2,87,0.9976828196579413,-0.00048178556177477447,0.007694955497204841
2,88,0.9974738596997678,-0.0005707907586176536,0.00832552088850145
2,89,0.9972232066328797,-0.0006798726459892594,0.009069159176744586
2,90,0.9969179808181283,-0.0008148673038354409,0.009950041166836577
2,91,0.9965403285609787,-0.0009839091754585364,0.010998637461950999
2,92,0.9960649187012957,-0.0011985544544861027,0.01225364504048799
2,93,0.9954548130896401,-0.0014754766710874962,0.013764280352308915
2,94,0.9946544117804028,-0.001838869857168843,0.015592293237523107
2,95,0.9935769815544631,-0.002323110862377838,0.017811110517999683
2,96,0.9920820588713342,-0.0029720321681419234,0.020492834892646188
2,97,0.9899352297090539,-0.0038150708205275954,0.023650237523768786
2,98,0.9867506790796121,-0.004717219395316897,0.02701508227309223
2,99,0.9820167394059256,-0.004561054573466383,0.029247480271857626
2,100,0.9758360047071476,0.0027329467064754168,0.025668990014782553
2,101,0.9728032360409539,0.046935312593179,0.008072569965852174
3,1,1.0004614992541727,2.626902278061889e-6,-5.57772312464809e-7
3,2,1.0004613700361429,5.413282040095252e-6,-2.810275274641504e-6
3,3,1.000462199482977,4.809941840682109e-6,-5.011472205105656e-6
3,4,1.0004638631761877,1.7903526768542117e-6,-5.4799542483790575e-6
3,5,1.0004662600186542,-2.839154945850517e-6,-3.023063855452958e-6
3,6,1.000469277479133,-8.493494119315903e-6,3.2000145535394643e-6
3,7,1.0004727957437254,-1.4773355408177053e-5,1.3759006042636028e-5
3,8,1.000476694494681,-2.1412659223788345e-5,2.9021397672781724e-5
3,9,1.000480857631208,-2.823546280748425e-5,4.9208714650214834e-5
3,10,1.0004851756277364,-3.5125652956303935e-5,7.44393925523016e-5
3,11,1.0004895462960297,-4.2006664258693824e-5,0.00010475980724058912
3,12,1.0004938746579837,-4.8828077474799905e-5,0.00014016635921986143
3,13,1.0004980723897998,-5.5556750179294784e-5,0.00018062081043281086
3,14,1.0005020571031957,-6.217090734024685e-5,0.0002260609947913679
3,15,1.0005057516048435,-6.865617299914297e-5,0.0002764080612300985
3,16,1.000509083205946,-7.500288662195376e-5,0.00033157146426917124
3,17,1.0005119831125169,-8.120427903956575e-5,0.00039145217637755875
3,18,1.0005143859078969,-8.725523009876212e-5,0.0004559448377958555
3,19,1.000516229125865,-9.315142431605639e-5,0.0005249389712588185
3,20,1.0005174529098027,-9.888878181531087e-5,0.0005983197286710758
3,21,1.0005179997486209,-0.00010446308164663537,0.0006759681293087902
3,22,1.0005178142822493,-0.00010986972105574364,0.0007577611329251442
3,23,1.0005168431668734,-0.00011510357188450599,0.0008435714266178847
3,24,1.0005150349936438,-0.00012015890734409673,0.000933267205500355
3,25,1.0005123402522118,-0.0001250293804769401,0.0010267117876489418
3,26,1.0005087113343543,-0.0001297080413592347,0.0011237633094310514
3,27,1.000504102570258,-0.00013418738386899385,0.001224274324211205
3,28,1.0004984702940676,-0.00013845941567200884,0.0013280915311297038
3,29,1.0004917729321297,-0.00014251574682076418,0.001435055450018955
3,30,1.0004839711115157,-0.00014634769380426563,0.0015450002569519783
3,31,1.0004750277827532,-0.00014994639662355171,0.0016577535949486087
3,32,1.0004649083550066,-0.00015330294724624367,0.0017731365656601672
3,33,1.0004535808378452,-0.0001564085280191476,0.0018909637177995558
3,34,1.0004410159882755,-0.00015925455907001443,0.002011043231094247
3,35,1.0004271874571882,-0.0001618328537037115,0.0021331771142277076
3,36,1.00041207193419,-0.00016413578110158352,0.0022571616091367126
3,37,1.0003956492848884,-0.0001661564354929394,0.002382787623658798
3,38,1.0003779026798372,-0.00016788881122221575,0.002509841378614635
3,39,1.0003588187090668,-0.00016932798295715918,0.002638105095412299
3,40,1.0003383874816598,-0.00017047029056404463,0.002767357903902332
3,41,1.0003166027041666,-0.0001713135280078055,0.002897376801201125
3,42,1.0002934617375943,-0.0001718571359862315,0.003027937834733278
3,43,1.0002689656266686,-0.00017210239789866358,0.0031588173455479873
3,44,1.0002431191014438,-0.0001720526392039317,0.003289793438627287
3,45,1.0002159305448746,-0.00017171343022246701,0.003420647522587599
3,46,1.0001874119268175,-0.00017109279303044805,0.003551166079088905
3,47,1.0001575786979797,-0.00017020141323991265,0.003681142512142698
3,48,1.0001264496446722,-0.00016905285824532013,0.003810379231628054
3,49,1.0000940466977104,-0.00016766380385519275,0.003938689831027773
3,50,1.0000603946966082,-0.00016605427226087886,0.00406590150847394
3,51,1.0000255211020241,-0.0001642478848890548,0.0041918576037117666
3,52,0.9999894556576598,-0.00016227213504016008,0.004316420396144131
3,53,0.9999522299937669,-0.0001601586861514108,0.00443947405290995
3,54,0.9999138771730554,-0.00015794370329195656,0.004560927870183688
3,55,0.9998744311696476,-0.0001556682269014843,0.004680719717977854
3,56,0.9998339262806373,-0.0001533786001005298,0.004798819832508099
3,57,0.9997923964582531,-0.0001511269629364421,0.0049152348942760205
3,58,0.9997498745595974,-0.0001489718299847941,0.005030012540835955
3,59,0.9997063914975022,-0.00014697877063178552,0.005143246288855141
3,60,0.9996619752847457,-0.00014522121543463762,0.005255081024942233
3,61,0.9996166499478734,-0.00014378141607063375,0.005365719087517548
3,62,0.9995704342947619,-0.00014275159187914402,0.005475427117420917
3,63,0.9995233405004539,-0.00014223530182583074,0.005584543761823757
3,64,0.9994753724819623,-0.00014234908825099739,0.005693488437906895
3,65,0.9994265240079342,-0.00014322444708910444,0.0058027713223035
3,66,0.9993767764919634,-0.00014501018980331174,0.00591300481593603
3,67,0.999326096385825,-0.00014787527440826405,0.006024916756861905
3,68,0.9992744320858955,-0.00015201219823783127,0.006139365693757545
3,69,0.9992217102217256,-0.00015764106336536418,0.006257358632825603
3,70,0.9991678311822412,-0.0001650144487176393,0.006380071661597724
3,71,0.9991126636720749,-0.0001744232516848414,0.0065088740483885315
3,72,0.9990560380584165,-0.00018620369911566447,0.006645356352097591
3,73,0.9989977381750893,-0.00020074577554979843,0.006791363391875071
3,74,0.9989374911846938,-0.0002185033799466815,0.006949032803802059
3,75,0.9988749549531911,-0.00024000660716034093,0.007120840380575862
3,76,0.9988097022626012,-0.0002658766657663693,0.007309653210533894
3,77,0.9987412009455048,-0.0002968441030491579,0.00751879230501801
3,78,0.9986687887747312,-0.00033377122901651063,0.007752106174555242
3,79,0.9985916415169678,-0.00037767994279685053,0.008014057759413572
3,80,0.9985087320622346,-0.0004297866042965053,0.008309826852696314
3,81,0.9984187777458542,-0.0004915462205559668,0.008645431441183496
3,82,0.9983201719572031,-0.0005647091065332905,0.009027871036792633
3,83,0.9982108945354013,-0.0006513944488677498,0.009465296641280754
3,84,0.9980883932486971,-0.0007541869885210214,0.00996721114722813
3,85,0.9979494252358894,-0.0008762655240853919,0.010544705001811658
3,86,0.9977898422939275,-0.0010215752658092657,0.011210728488700646
3,87,0.9976042960959997,-0.0011950602233715634,0.011980397910343145
3,88,0.9973858275747322,-0.0014029760827001265,0.012871316587323755
3,89,0.9971252860928059,-0.0016533057360093517,0.013903860245486725
3,90,0.9968104953818834,-0.0019562902780905305,0.015101297787486598
3,91,0.9964250394558982,-0.0023250430677523213,0.016489449728625077
3,92,0.9959464793007785,-0.002776061559894011,0.018095193612143838
3,93,0.9953437374389351,-0.0033289809072142083,0.019942229749317773
3,94,0.9945733655862037,-0.004003490535404054,0.022040398259459023
3,95,0.9935747301658736,-0.004806966867163478,0.024359761682072326
3,96,0.9922659840450181,-0.005692527466082317,0.026768452550683206
3,97,0.9905504144254352,-0.006421995724564547,0.028885662490166573
3,98,0.9883701101197906,-0.006122121922885508,0.02975533468074989
3,99,0.9859145084270313,-0.0019070573301462293,0.027290205120789984
3,100,0.9840640611486984,0.014733238769566882,0.018315781129061466
3,101,0.9863169592996255,0.06151316593585446,0.00442250589878248
4,1,1.0004595321229612,4.383858218353223e-6,-3.9017112117329563e-7
4,2,1.0004596035200692,7.789575690379461e-6,-1.680538937875994e-6
4,3,1.0004605294922586,5.7287737425178284e-6,-1.9851721728805826e-6
4,4,1.0004621817763848,-2.012387502111254e-7,4.4959271827577953e-7
4,5,1.0004644598635404,-8.791859763639205e-6,6.893909260466289e-6
4,6,1.0004672639167098,-1.9152203226666075e-5,1.8275462791115787e-5
4,7,1.0004704919772422,-3.0646087273822606e-5,3.525642216620372e-5
4,8,1.000474041645369,-4.282848228551173e-5,5.8291085896528356e-5
4,9,1.0004778124565488,-5.539161513587096e-5,8.767402805223148e-5
4,10,1.0004817076278383,-6.812391738061354e-5,0.00012357976276782876
4,11,1.0004856349947162,-8.08804351065318e-5,0.00016609390273120446
4,12,1.0004895073209794,-9.356203958023592e-5,0.00021523699464073132
4,13,1.0004932422104162,-0.00010610096657815584,0.0002709821448484661
4,14,1.0004967618007725,-0.0001184507798168426,0.0003332679941831656
4,15,1.000499992360483,-0.00013057939553760963,0.0004020079602435447
4,16,1.0005028638634925,-0.00014246422268384873,0.0004770968867774283
4,17,1.0005053095840224,-0.00015408877024572344,0.000558415579861062
4,18,1.0005072657349356,-0.0001654402779946341,0.0006458339842816365
4,19,1.0005086711587685,-0.00017650806607812398,0.0007392131752583594
4,20,1.000509467075687,-0.00018728239346550596,0.0008384066799127037
4,21,1.0005095968858717,-0.00019775367956227196,0.0009432611296397362
4,22,1.0005090060244968,-0.00020791198736229365,0.001053616623059495
4,23,1.0005076418633838,-0.00021774669681274257,0.0011693067073163834
4,24,1.000505453656232,-0.00022724631812877258,0.0012901582826599486
4,25,1.000502392520908,-0.0002363984094300117,0.001415991289505983
4,26,1.0004984114559763,-0.00024518957341628433,0.0015466184407680406
4,27,1.0004934653851412,-0.00025360551498977495,0.0016818448343221394
4,28,1.0004875112274265,-0.00026163114692045656,0.0018214676836753225
4,29,1.00048050798703,-0.0002692507341952076,0.001965275990393785
4,30,1.0004724168612773,-0.0002764480703206381,0.0021130503808790024
4,31,1.0004632013607604,-0.00028320668055122614,0.002264562926755856
4,32,1.000452827440544,-0.0002895100483567119,0.0024195771607809324
4,33,1.0004412636365168,-0.0002953418621907113,0.0025778481070256164
4,34,1.0004284812061086,-0.00030068628031510336,0.002739122528978892
4,35,1.000414454267324,-0.00030552821170325693,0.0029031392158457912
4,36,1.0003991599355682,-0.0003098536114171392,0.003069629503545977
4,37,1.000382578452033,-0.0003136497889066104,0.0032383178533620925
4,38,1.0003646933033368,-0.00031690572792435147,0.003408922678033489
4,39,1.0003454913259908,-0.0003196124167334496,0.0035811572416701767
4,40,1.0003249627956148,-0.00032176318753823107,0.003754730816699508
4,41,1.0003031014942934,-0.0003233540640777357,0.003929349928301691
4,42,1.0002799047562823,-0.0003243841166740637,0.004104719863008513
4,43,1.000255373485294,-0.00032485582414632706,0.0042805462767938245
4,44,1.0002295121439113,-0.00032477544252045113,0.004456537072918129
4,45,1.0002023287082316,-0.0003241533807732062,0.0046324043908189194
4,46,1.0001738345886575,-0.00032300458460419275,0.004807866870246866
4,47,1.0001440445098018,-0.00032134892980298157,0.004982652039463686
4,48,1.0001129763507677,-0.00031921162784947956,0.00515649898631316
4,49,1.0000806509385582,-0.00031662364731172417,0.005329161170698281
4,50,1.0000470917961037,-0.00031362215607965837,0.005500409533030741
4,51,1.0000123248372301,-0.0003102509908691867,0.005670035769902748
4,52,0.9999763780100376,-0.0003065611624217412,0.005837855929035551
4,53,0.9999392808801542,-0.0003026114068237464,0.00600371421149047
4,54,0.9999010641548255,-0.00029846879604157996,0.006167487133188221
4,55,0.9998617591377565,-0.0002942094235516468,0.006329087955729812
4,56,0.9998213971143128,-0.0002899191845021208,0.006488471542011726
4,57,0.9997800086543196,-0.0002856946736653228,0.006645639575455366
4,58,0.9997376228293643,-0.0002816442291587703,0.006800646306419179
4,59,0.9996942663274043,-0.0002778891551137934,0.006953604802135341
4,60,0.9996499624567493,-0.00027456516273420583,0.007104693877842166
4,61,0.9996047300150568,-0.0002718240762296521,0.007254165733892558
4,62,0.9995585820072844,-0.0002698358584428346,0.007402354498257559
4,63,0.9995115241768451,-0.0002687910205170905,0.007549685761079145
4,64,0.9994635533206427,-0.00026890349110787244,0.007696687331803254
4,65,0.99941465533432,-0.0002704140336019899,0.007844001383542479
4,66,0.9993648029370578,-0.0002735943149129314,0.00799239825722787
4,67,0.9993139529940719,-0.0002787517472780638,0.008142792186813068
4,68,0.9992620433520589,-0.0002862352453895909,0.00829625927184407
4,69,0.9992089890611704,-0.00029644206641012193,0.00845405807541604
4,70,0.9991546778440811,-0.00030982593038482827,0.008617653238200036
4,71,0.9990989646146127,-0.00032690665561176574,0.008788742622308202
4,72,0.9990416648178673,-0.00034828158861044314,0.00896928844498812
4,73,0.9989825462790511,-0.0003746391656441158,0.00916155306284186
4,74,0.9989213191870573,-0.0004067750145041315,0.009368139924148807
4,75,0.9988576237092163,-0.00044561109884668133,0.009592040483369112
4,76,0.9987910146177543,-0.0004922185274684614,0.009836687596532367
4,77,0.9987209421003498,-0.0005478448099050309,0.010106016241097276
4,78,0.9986467277107258,-0.0006139465459386297,0.010404531901726247
4,79,0.9985675340643592,-0.000692228807935581,0.010737387230460572
4,80,0.9984823264779508,-0.0007846928199988453,0.011110466619658024
4,81,0.9983898241318839,-0.0008936939694749484,0.011530478183746506
4,82,0.9982884375614586,-0.0010220126832164408,0.012005050520374226
4,83,0.998176188147033,-0.0011729412004885407,0.012542829934445894
4,84,0.9980506037884722,-0.0013503895637809323,0.013153568409740551
4,85,0.9979085828348175,-0.001559013731766013,0.01384818564511246
4,86,0.9977462155501237,-0.0018043663954947953,0.014638772854448095
4,87,0.9975585486437782,-0.002093064153868918,0.015538481001662574
4,88,0.99733927381887,-0.0024329470176662742,0.016561186143136293
4,89,0.9970803164372457,-0.0028331637883199034,0.01772073545804099
4,90,0.9967712978800617,-0.003304017388741388,0.019029404028170983
4,91,0.9963988527365256,-0.003856171819608788,0.020494864795529085
4,92,0.9959458216256947,-0.0044982745181408115,0.022114333130372237
4,93,0.9953904730296724,-0.005230735001380761,0.023863307158514997
4,94,0.9947062968052847,-0.0060301924543928005,0.025673941418037544
4,95,0.9938639910458237,-0.006811235416252098,0.027393793742742357
4,96,0.9928400890206529,-0.007332128787408433,0.028709342978364975
4,97,0.9916432867706806,-0.006964202061785509,0.029016461026360914
4,98,0.9903807462989372,-0.004150162574116069,0.02725851928914963
4,99,0.9893862741295548,0.004706316580136864,0.021969400735935278
4,100,0.9893548589529109,0.026684920591207733,0.012438227922484441
4,101,0.9918989570133785,0.07007617391603566,0.002552633058890288
5,1,1.0004565665497611,4.569415897838608e-6,-1.0823790896350076e-7
5,2,1.000456998969546,7.4448334213910195e-6,1.2526855218037791e-7
5,3,1.0004581340410592,2.856898608418069e-6,2.5810735093870916e-6
5,4,1.0004598741661637,-7.0606162049018035e-6,8.900358355488266e-6
5,5,1.0004621331582417,-2.0724987138333897e-5,2.032231989033817e-5
5,6,1.0004648258106514,-3.695957269208749e-5,3.77813513258235e-5
5,7,1.0004678658251416,-5.4900921456174356e-5,6.196974138395548e-5
5,8,1.000471166119104,-7.392389498220173e-5,9.33839845071288e-5
5,9,1.0004746400549243,-9.358055632855552e-5,0.0001323633260109873
5,10,1.0004782026650825,-0.00011355220388201781,0.00017912288492541223
5,11,1.0004817715333687,-0.00013361310303537386,0.0002337812758000128
5,12,1.0004852672938398,-0.00015360374603215398,0.00029638309206017014
5,13,1.0004886138232507,-0.00017341142550852994,0.0003669165034184263
5,14,1.000491738225168,-0.00019295622987359703,0.0004453268887500589
5,15,1.0004945706893325,-0.00021218098316852843,0.0005315270186337286
5,16,1.0004970442892422,-0.00023104402915872577,0.0006254046975678933
5,17,1.000499094759172,-0.00024951406032367455,0.0007268282265961121
5,18,1.0005006602784685,-0.00026756641817176805,0.0008356503885134814
5,19,1.0005016812778236,-0.0002851804554008822,0.0009517111148916759
5,20,1.0005021002774124,-0.00030233766793069227,0.0010748393546486262
5,21,1.0005018617592982,-0.0003190203883372306,0.0012048541575246387
5,22,1.0005009120764707,-0.00033521089155112645,0.0013415653700618554
5,23,1.000499199395878,-0.00035089080576143996,0.0014847738676443706
5,24,1.000496673675137,-0.00036604075152202504,0.00163427164489576
5,25,1.0004932866683705,-0.0003806401534334065,0.0017898416365213778
5,26,1.0004889919601863,-0.00039466718418836516,0.0019512575453334638
5,27,1.0004837450225634,-0.00040809881172633634,0.0021182835214977555
5,28,1.0004775032936883,-0.00042091092823734553,0.0022906739417648345
5,29,1.000470226273247,-0.000433078545376305,0.002468173118354871
5,30,1.0004618756334434,-0.00044457604421118557,0.002650515168329957
5,31,1.0004524153400618,-0.000455377471263718,0.0028374238665808595
5,32,1.000441811783088,-0.0004654568741584909,0.0030286127009121738
5,33,1.0004300339109942,-0.000474788671754528,0.00322378495024116
5,34,1.0004170533684063,-0.00048334805475283116,0.003422633995035634
5,35,1.0004028446310054,-0.0004911114133555046,0.00362484368138039
5,36,1.0003873851375675,-0.0004980567891517256,0.0038300889399731186