TITLE="CMs_NON_Orthogonal Re = 10000.0"
VARIABLES = X,Y,Rho,U,V
ZONE
I = 101	J = 101
F=POINT
1,1,1.0009611639659992,2.7027936340719844e-6,-3.2761214510381472e-6
1,2,1.000962446683796,6.894777467794633e-6,-2.1022432192372304e-5
1,3,1.0009623427065526,7.23556592636342e-6,-4.376475154361016e-5
1,4,1.0009626249770938,8.262773660859342e-6,-6.947581445823287e-5
1,5,1.0009629599184338,9.499645807748026e-6,-9.986017747102133e-5
1,6,1.0009633224401557,1.0674984743547598e-5,-0.00013600867974979426
1,7,1.0009637364286843,1.1618959141720651e-5,-0.00017872921140845672
1,8,1.0009642204565252,1.2117937797775333e-5,-0.0002290961887547627
1,9,1.0009647701569548,1.1809180430526829e-5,-0.00028815876132159805
1,10,1.00096537187867,1.0149482558073792e-5,-0.00035703106233999173
1,11,1.0009660037018515,6.41547493270464e-6,-0.0004364241392337201
1,12,1.000966647018829,-2.9968678616334045e-7,-0.0005266726151537099
1,13,1.000967297500448,-1.1073043166416678e-5,-0.0006272429969134472
1,14,1.0009679821248985,-2.711449607314406e-5,-0.0007367328823559465
1,15,1.0009687773085587,-4.9709651231096645e-5,-0.000852453350254315
1,16,1.000969825347204,-8.013054501496135e-5,-0.0009705317474166109
1,17,1.0009713403555165,-0.00011954327772139481,-0.0010857109204798793
1,18,1.000973600499535,-0.00016890944245870047,-0.0011916430159399206
1,19,1.0009769220457705,-0.0002289152374763086,-0.0012809148668318797
1,20,1.000981620701122,-0.00029991203044791795,-0.0013454495076875594
1,21,1.0009879629980345,-0.0003818850517206426,-0.0013766347002008737
1,22,1.0009961165569066,-0.0004744227603544545,-0.0013657380832916078
1,23,1.0010061010614861,-0.0005767002554816016,-0.0013041240856293073
1,24,1.0010177457927596,-0.0006874615766729675,-0.0011837687895914974
1,25,1.0010306538901383,-0.0008050256657856542,-0.0009976889267781324
1,26,1.001044179764083,-0.0009273161538684499,-0.0007406460650266053
1,27,1.0010574251562905,-0.001051938524937842,-0.0004097291252681225
1,28,1.0010692676717388,-0.0011762957176739395,-5.012616190679156e-6
1,29,1.0010784289329269,-0.001297741591372694,0.00047010019727521313
1,30,1.0010835809713812,-0.0014137480481930618,0.0010086883320752356
1,31,1.0010834751857707,-0.0015220834010550193,0.0016005592220977739
1,32,1.0010770763291936,-0.001620977467241559,0.002232738157944241
1,33,1.001063679920803,-0.0017092378979157478,0.002890362693229121
1,34,1.0010429938564633,-0.001786272519796018,0.0035576566045614514
1,35,1.0010151692857832,-0.0018520282403222306,0.004218979488726765
1,36,1.0009807786534906,-0.0019068744063839445,0.004859655125492898
1,37,1.000940748510885,-0.0019514719952668609,0.005466655191117823
1,38,1.0008962638017127,-0.0019866469488321586,0.006028969333519778
1,39,1.0008486609157208,-0.002013286746123842,0.006537811249348915
1,40,1.000799326560623,-0.0020322598944452993,0.00698657334568497
1,41,1.00074961196014,-0.0020443638156996905,0.007370701496087992
1,42,1.000700769329046,-0.002050292551686505,0.007687431754805758
1,43,1.0006539088761108,-0.002050625036576569,0.00793553607239583
1,44,1.0006099767023335,-0.0020458239764872786,0.008115021203218786
1,45,1.0005697457044835,-0.0020362461734324743,0.008226884319042881
1,46,1.0005338199640168,-0.002022155735870853,0.00827287532655467
1,47,1.0005026422219043,-0.0020037425894546884,0.008255321241035046
1,48,1.000476509284985,-0.001981139382789636,0.00817698727766547
1,49,1.0004555825539754,-0.0019544408708473977,0.008040974336264524
1,50,1.000439905326303,-0.0019237194187639798,0.007850679634304006
1,51,1.0004294092635175,-0.0018890426483750256,0.007609742762174288
1,52,1.0004239308915297,-0.0018504850952644246,0.007322096149746688
1,53,1.0004232117290726,-0.0018081440503342635,0.006991917787114754
1,54,1.0004269158132066,-0.0017621446498690904,0.006623765677447141
1,55,1.000434623882905,-0.001712655706760658,0.006222475015716156
1,56,1.0004458565571175,-0.001659882517925353,0.005793387155980107
1,57,1.0004600638990078,-0.0016040881417166905,0.005342093191030311
1,58,1.0004766602304593,-0.001545561933934865,0.004874808370678475
1,59,1.0004950097111578,-0.0014846609866677094,0.004397797956194687
1,60,1.0005144783433848,-0.0014217304427143142,0.003918043314903169
1,61,1.0005344138931922,-0.0013571999863205338,0.0034420627777544456
1,62,1.000554217474799,-0.0012914104520939608,0.0029772229021278454
1,63,1.0005733122330918,-0.0012248343515627491,0.0025294355769433087
1,64,1.0005912320465258,-0.0011577293031671567,0.0021058571085284185
1,65,1.0006075703459931,-0.0010905924677646103,0.001710540619343156
1,66,1.0006220742632763,-0.0010235425488929444,0.0013498458735000255
1,67,1.0006345683112194,-0.0009570859504155126,0.0010246324734344728
1,68,1.0006450479168112,-0.0008912153954968452,0.0007400989287745645
1,69,1.0006535697033068,-0.0008264449940083983,0.0004930727915694887
1,70,1.0006603133746186,-0.0007627504460667556,0.0002876140235985079
1,71,1.0006654957072867,-0.000700551053980819,0.00011667950035237527
1,72,1.000669454230862,-0.0006399084000113463,-1.6673825617873186e-5
1,73,1.000672438899955,-0.0005813714131562774,-0.00012211943247663785
1,74,1.000674623466879,-0.0005250647705584965,-0.0001964894361710774
1,75,1.0006762603749086,-0.00047113947044690596,-0.0002508547492240076
1,76,1.0006777955861803,-0.0004197458455278466,-0.00028230838766727393
1,77,1.0006793892718018,-0.0003717058008069701,-0.0003019618972536616
1,78,1.000680781065895,-0.0003276336585469484,-0.00030382992100366454
1,79,1.0006817092177518,-0.00028767813450327617,-0.00029651112036969127
1,80,1.0006823840984194,-0.0002511269642313868,-0.0002731513816608222
1,81,1.0006832258588951,-0.00021727768059646486,-0.00024519065117239026
1,82,1.0006845528294297,-0.0001853190417938,-0.0002083804413854108
1,83,1.000686364430777,-0.0001548631654404169,-0.00017681627512902928
1,84,1.0006885528679976,-0.00012540988987072278,-0.00014658640941357917
1,85,1.000691018465301,-9.723906271654471e-5,-0.00013272839923028453
1,86,1.000693516840961,-7.034116502986183e-5,-0.000130389767283969
1,87,1.0006960915407013,-4.663495502611663e-5,-0.00015399473328077558
1,88,1.000698178188994,-2.7663412234632947e-5,-0.00019182525433499123
1,89,1.0006997459804299,-1.5465877709006822e-5,-0.00024984764804970806
1,90,1.0007006305727073,-1.4393963578910638e-5,-0.00029991928163095125
1,91,1.000700706100319,-2.0100628210246414e-5,-0.00033315270270580145
1,92,1.0007097928803206,-5.268309695440497e-5,-0.00029631620555759593
1,93,1.000713540660218,-0.00011462918990847685,-0.00011948715159828411
1,94,1.00071492931842,-0.00019596165941116543,0.0002787632623062366
1,95,1.000714793304668,-0.0002842243411783188,0.0009433517789021373
1,96,1.0007750588935656,-0.0002535404048646136,0.0017239694628797637
1,97,1.0009619295147036,-0.0010077594227621191,0.003405778108284986
1,98,1.0002759917250568,-0.0010755834271729597,0.006580608475734542
1,99,1.0007384278624096,0.0005744258216507456,0.007648407193280854
1,100,1.0019158656524005,-0.007687982673329184,0.01640063016628719
1,101,0.9965019265081816,0.026526123328278157,0.013997996534412629
2,1,1.0009596662986877,2.1011761951372872e-5,-6.796535048559897e-6
2,2,1.0009609228295822,4.556842041117896e-5,-4.263039866871118e-5
2,3,1.0009602201776673,5.358991427375211e-5,-9.908945758244486e-5
2,4,1.0009600402168555,6.256678051691766e-5,-0.0001667629698399672
2,5,1.0009598544302383,7.518282259049176e-5,-0.000247367836091142
2,6,1.0009595584366826,9.017328562310146e-5,-0.000344460086952216
2,7,1.0009592039963382,0.00010773343304582081,-0.0004603581305366134
2,8,1.0009587780217304,0.00012846548360407857,-0.000597742236047831
2,9,1.0009582624707667,0.00015273558309390154,-0.0007592728215999097
2,10,1.0009576403718001,0.0001805394256247297,-0.0009472658341901016
2,11,1.0009569140056138,0.0002114512298739286,-0.0011627392173089363
2,12,1.0009561186335139,0.0002446062342301371,-0.0014049576543569966
2,13,1.0009553417199553,0.00027870350923833286,-0.0016705594271057727
2,14,1.0009547402407035,0.0003120833654039123,-0.001953303701260828
2,15,1.0009545550257284,0.00034287688980473823,-0.002243626453790266
2,16,1.0009551104467893,0.00036920166160023325,-0.0025289753759359162
2,17,1.0009567995091921,0.0003893547048703979,-0.0027940592727600157
2,18,1.0009600486991699,0.00040194227167334823,-0.003021735184476105
2,19,1.00096527374913,0.00040591962745157065,-0.0031935982678979913
2,20,1.0009728284371657,0.00040055450153860927,-0.0032908666917175777
2,21,1.0009829591778487,0.00038537741011286387,-0.0032948049618604907
2,22,1.0009957625204025,0.00036019195439633117,-0.00318738029528321
2,23,1.0010111505067094,0.00032520231246262524,-0.0029516768317893473
2,24,1.0010288152196607,0.0002812546523616111,-0.0025727825847212727
2,25,1.0010481978606107,0.00023012728454494774,-0.0020386980254627016
2,26,1.0010684625479065,0.00017474994782772934,-0.0013416997571706413
2,27,1.0010884959991648,0.00011923768016133728,-0.0004795025853652402
2,28,1.001106942297604,6.867791345011346e-5,0.0005436177692296861
2,29,1.0011222856094752,2.8691057642140684e-5,0.0017163874427501037
2,30,1.0011329679783574,4.8330591595328194e-6,0.003020571210566617
2,31,1.0011375379600367,1.940670087515022e-6,0.004431891820316714
2,32,1.0011348012007832,2.3542960911563727e-5,0.005921424613341218
2,33,1.0011239554798286,7.146844732605813e-5,0.007457572710053597
2,34,1.0011046737770903,0.00014572544424980115,0.009008027806111069
2,35,1.0010771320573526,0.00024465323873334804,0.010541698299610144
2,36,1.0010419693338581,0.0003652711761459299,0.012030127268554253
2,37,1.0010002069478956,0.0005037264223866803,0.013448543869738927
2,38,1.0009531324366283,0.0006557451684451605,0.014776318098207801
2,39,1.0009021852982092,0.0008170213572234967,0.0159970979646523
2,40,1.0008488436826137,0.0009835068889566484,0.01709854367354734
2,41,1.0007945414393662,0.0011515982363236982,0.018071933018974775
2,42,1.0007405987245601,0.0013182285640707693,0.01891160025538798
2,43,1.0006881881033642,0.0014808878529693897,0.019614384979664494
2,44,1.0006383080098837,0.0016375890447824929,0.02017908982707163
2,45,1.0005917857813398,0.0017868042749495355,0.02060598306844589
2,46,1.0005492757879133,0.0019273807149969753,0.02089643243267601
2,47,1.0005112812371904,0.002058455519301142,0.02105252460023978
2,48,1.0004781595977827,0.0021793669371933397,0.021076933279419157
2,49,1.0004501505134704,0.0022895804011778113,0.020972631739073228
2,50,1.0004273775289028,0.0023886139003882084,0.02074301912674711
2,51,1.0004098767916179,0.002475988435435202,0.02039165699181146
2,52,1.0003975893958097,0.0025511730029631596,0.01992268619962808
2,53,1.0003903911356373,0.002613566297710865,0.019340484407127212
2,54,1.0003880724233392,0.0026624631812152623,0.01865043506359902
2,55,1.000390373221288,0.0026970760671352783,0.017858354145338904
2,56,1.00039694804991,0.002716525526471028,0.016971709754938162
2,57,1.0004074134447132,0.0027199128357285247,0.01599858578790831
2,58,1.0004212949610785,0.0027063359610176503,0.014949492493746667
2,59,1.0004380978273497,0.0026750219852185214,0.013835517018965706
2,60,1.0004572315660099,0.0026253606459476645,0.012670921630307244
2,61,1.0004781175306496,0.0025570897087957563,0.011469991382355067
2,62,1.000500084691104,0.002470318476966483,0.010250714502590689
2,63,1.0005225283831556,0.002365731648519838,0.009029717825325136
2,64,1.0005447674554733,0.0022445570186864494,0.007827499247129919
2,65,1.0005662638859545,0.0021087147900850714,0.006660801236311417
2,66,1.0005864280870271,0.0019606855189950663,0.00555012483778835
2,67,1.0006048970899142,0.0018035593343123382,0.004508982360959119
2,68,1.000621275001743,0.0016407686177033708,0.0035546228089658716
2,69,1.0006354579331325,0.0014759639894537412,0.0026938898539986722
2,70,1.0006473014680533,0.0013127519675568643,0.0019379934685613506
2,71,1.0006569567454502,0.0011546600991594843,0.0012850609562073485
2,72,1.000664506449356,0.0010046064683479953,0.0007391027295971098
2,73,1.000670346488326,0.000864551788918965,0.0002897753008158292
2,74,1.0006746510095215,0.0007359248582783305,-6.442855041257689e-5
2,75,1.0006777234358615,0.0006204966668583447,-0.00033934499102703094
2,76,1.000679828857003,0.0005190783548989612,-0.0005403631976356765
2,77,1.000681661243189,0.00042956841695855895,-0.0006870541295748996
2,78,1.0006833854375894,0.00034815810866270004,-0.0007823762116129534
2,79,1.0006848215752246,0.0002734028399842915,-0.0008392954678873697
2,80,1.0006854927368602,0.00020792711580881407,-0.000855297367106841
2,81,1.0006856109145588,0.0001559991654420768,-0.0008479272343254472
2,82,1.0006854450419504,0.0001208741489130319,-0.0008259847107309888
2,83,1.000685439190968,0.00010395628058071755,-0.0008199928593094759
2,84,1.0006853362239103,0.0001051822592827337,-0.0008455922778149794
2,85,1.0006850573481603,0.00012450035339005972,-0.0009358238439018437
2,86,1.0006842267786769,0.0001593977484248546,-0.001102852187032579
2,87,1.0006824497592814,0.00020391993316669563,-0.0013702611345530902
2,88,1.0006801334077666,0.0002454348644967502,-0.0017294716827241441
2,89,1.0006767038434976,0.0002660917614736369,-0.002169111804450083
2,90,1.000673901344448,0.0002495063224960295,-0.002641714244629351
2,91,1.0006747488068706,0.0001608240385556321,-0.003079064282668048
2,92,1.0006802176200964,-2.9592809214558294e-5,-0.0033778663154742303
2,93,1.0007067518051616,-0.00040664310379278496,-0.0034165987949856358
2,94,1.000717917196272,-0.0008872550677157831,-0.0030135981978162978
2,95,1.0007771582152598,-0.001228644497468761,-0.002323507136809448
2,96,1.000842786458822,-0.0023442560396442222,-0.0005526474628613998
2,97,1.0007444307266538,-0.003807847874417062,0.0018997002509244794
2,98,1.0015007084615553,-0.004569305363848861,0.003893728725039856
2,99,1.000403403295,-0.010832001126304948,0.016135543618442515
2,100,0.999614160920782,-0.012232781894057148,0.02178647044782163
2,101,1.0037628223032702,0.05152584473976251,0.0056258966655609805
3,1,1.0009597262107406,3.951128183886297e-5,-6.5704003381232196e-6
3,2,1.0009616521568263,9.81744348402253e-5,-4.615130114734466e-5
3,3,1.0009610494953358,0.000127186014549896,-0.00011873643040228863
3,4,1.0009605309773204,0.00015110020427001476,-0.00021538884452581013
3,5,1.0009602643279527,0.00018075689121181394,-0.0003317793389055847
3,6,1.0009599699458802,0.00021584323815335992,-0.0004708408230556239
3,7,1.000959564382763,0.00025528269495206666,-0.0006363779359312119
3,8,1.000959079175912,0.0002991242178673553,-0.000831217993137528
3,9,1.0009584946568395,0.0003465530309714093,-0.0010574676233719939
3,10,1.0009578019272094,0.0003951956513618565,-0.0013159392943962902
3,11,1.000957020743826,0.00044112446711945064,-0.001604703396858071
3,12,1.0009562120200048,0.0004789746603263386,-0.0019184366602694953
3,13,1.0009554929059188,0.0005022406159422812,-0.0022475381044667567
3,14,1.0009550472405147,0.000503784893261008,-0.0025783123478537386
3,15,1.0009551275842734,0.0004765410166511454,-0.0028932043156344738
3,16,1.000956043012597,0.0004142606739872436,-0.0031721073939008026
3,17,1.0009581320399414,0.0003121064631638405,-0.0033934977512775706
3,18,1.000961726835918,0.00016693554456364093,-0.003536039519208776
3,19,1.0009671155742805,-2.275095191617424e-5,-0.003579388207072405
3,20,1.000974513236963,-0.00025705828315904943,-0.0035049412023981396
3,21,1.0009840417031055,-0.0005349225863765595,-0.0032957367195991386
3,22,1.0009957176265207,-0.0008540966879895467,-0.0029366238774433786
3,23,1.0010094358989639,-0.0012108133792920362,-0.0024142610943894472
3,24,1.0010249402998528,-0.0015992223311723374,-0.0017179806660556729
3,25,1.001041778058268,-0.0020108604697290085,-0.0008408028154196146
3,26,1.0010592526868034,-0.0024344594275053344,0.00021891903696548678
3,27,1.0010763977385002,-0.002856295863906159,0.001456307288186604
3,28,1.00109198965547,-0.0032611000309135055,0.0028589403851949835
3,29,1.001104612807253,-0.0036333887341523223,0.004406957115703527
3,30,1.0011127763757641,-0.003958991489363382,0.006073772258297555
3,31,1.0011150763224983,-0.004226486030642967,0.007827958789781719
3,32,1.0011103646857877,-0.004428248240625043,0.009635365491561342
3,33,1.0010978964957475,-0.004560918962621348,0.011461680074952445
3,34,1.0010774121980868,-0.00462524454051754,0.013274409192092365
3,35,1.0010491566037978,-0.004625413777292624,0.01504463478059262
3,36,1.001013823877714,-0.0045680965893813335,0.0167478064451655
3,37,1.0009724669242392,-0.004461409471224894,0.018364249779647485
3,38,1.0009263731363551,-0.0043139753094623996,0.019878868585365625
3,39,1.0008769527860921,-0.004134183227515686,0.021280851874437935
3,40,1.0008256274947986,-0.003929675875197753,0.022562866908175227
3,41,1.0007737570813853,-0.003707056070650975,0.023720522636938426
3,42,1.000722573988569,-0.0034717667285980806,0.0247515063268084
3,43,1.0006731586817772,-0.0032281046283623104,0.02565512329950988
3,44,1.000626414478578,-0.0029793152515544346,0.02643158131486771
3,45,1.00058307624797,-0.002727742499108598,0.02708170914008092
3,46,1.0005437075883519,-0.0024749949340692056,0.027606432339070057
3,47,1.0005087244477533,-0.0022221245690114467,0.028006659384577796
3,48,1.0004783999012365,-0.0019697910162057865,0.02828293200316705
3,49,1.0004528904289571,-0.0017184257018802852,0.028435431366852414
3,50,1.0004322409365756,-0.0014683699547126867,0.028463789201207488
3,51,1.0004164079712874,-0.0012200164080061044,0.028367166730313958
3,52,1.000405263600498,-0.0009739180625413988,0.028144248042188
3,53,1.000398613900179,-0.0007309085839436908,0.02779335056914982
3,54,1.00039620377974,-0.0004921789546847626,0.02731267273770173
3,55,1.0003977304995677,-0.0002593711807858701,0.026700384809861068
3,56,1.0004028528142581,-3.460553340454859e-5,0.02595525775948886
3,57,1.0004111984708322,0.00017947428259903933,0.02507663402949295
3,58,1.000422380459363,0.00037975823833392037,0.02406560952149105
3,59,1.0004359950196215,0.0005627102748919153,0.022924667115240358
3,60,1.000451645909787,0.0007245528428444481,0.021659598847633976
3,61,1.0004689269902234,0.00086142445760985,0.02027838193377655
3,62,1.0004874541482593,0.0009697105552889836,0.018794003870664017
3,63,1.00050682792053,0.0010463051277191033,0.017221898527451
3,64,1.000526673769905,0.0010890358302321932,0.015583810034744934
3,65,1.000546588259745,0.0010969206356220465,0.01390291031505762
3,66,1.0005661941989856,0.0010705385738424514,0.012208895604341229
3,67,1.0005850845985849,0.0010121139003399788,0.010529987163143595
3,68,1.0006028905551017,0.0009256086024323208,0.008899717661320727
3,69,1.00061924964966,0.0008164328343638085,0.007345491241472224
3,70,1.0006338813519542,0.0006912085631141892,0.005897802526700227
3,71,1.000646567414196,0.0005572948195862857,0.0045759209880402605
3,72,1.000657177553979,0.0004221195581946091,0.003400462884801827
3,73,1.0006657221122275,0.00029212071287734585,0.002376929427030497
3,74,1.0006723582500652,0.00017254245386887892,0.0015120128116910645
3,75,1.0006772814565221,6.848011906428599e-5,0.0007968966394646433
3,76,1.0006806043076124,-1.5652805775651113e-5,0.00022650423635616105
3,77,1.0006827297686514,-8.024201569461504e-5,-0.00022006798419910145
3,78,1.0006842952639685,-0.00013210009206795695,-0.0005568165276272934
3,79,1.000685638473302,-0.00017761209832906305,-0.0008052351780182473
3,80,1.0006863495689087,-0.0002137268320033062,-0.0009710827195065954
3,81,1.0006859648181072,-0.0002276882313992068,-0.0010729129931267532
3,82,1.0006845562344244,-0.0002044695942125031,-0.0011301236347017645
3,83,1.0006826546801277,-0.00013406847345725633,-0.0011877764952149404
3,84,1.0006806761230191,-1.384414083269038e-5,-0.001288889985162178
3,85,1.0006786723452517,0.00015279379965681995,-0.0014864543988904037
3,86,1.000676352324096,0.000354869279826696,-0.0018132788329950724
3,87,1.0006736109434335,0.0005667107052434284,-0.0022927340757347486
3,88,1.0006693515674288,0.0007527999408544974,-0.0029066050584885487
3,89,1.0006654371874424,0.0008680449458778584,-0.003620941192416189
3,90,1.0006615672135721,0.0008558919163424651,-0.004337361032728914
3,91,1.00065976269117,0.0006794008605003915,-0.004967682847937236
3,92,1.0006645850053582,0.00024729884136067255,-0.0053634603986244325
3,93,1.0006592131292398,-0.0004146155412613519,-0.005472717289691567
3,94,1.0007165262812143,-0.0012048977106338201,-0.005434020529741103
3,95,1.0007241462309646,-0.002541969888813296,-0.004418057463681643
3,96,1.0005944826617015,-0.003658801219284532,-0.003354543607088617
3,97,1.0010480739112095,-0.005298269627525648,-0.002954207240007232
3,98,1.0006735487912604,-0.012392576918455762,0.0035660451058911464
3,99,0.9995112033592969,-0.01697751759349056,0.005925401807297688
3,100,1.0005733219976851,-0.0027560584977029414,-0.000635994135305236
3,101,1.000493075721618,0.055182075727000415,-0.0019279476490088475
4,1,1.0009593242249502,6.216283969200423e-5,-7.79705750976502e-6
4,2,1.0009614640850442,0.0001606664084553262,-5.297103000456519e-5
4,3,1.0009611482135385,0.00022289353941403202,-0.000137219954247932
4,4,1.0009606627146737,0.00027271838161635714,-0.0002541871826960429
4,5,1.000960207770272,0.00032585089969572485,-0.00039762792371745903
4,6,1.0009599379989758,0.0003879813748779733,-0.0005651955812467817
4,7,1.0009596457101109,0.0004588438691845594,-0.00075915594638626
4,8,1.0009592626698154,0.0005373212480706362,-0.0009815450359925886
4,9,1.0009588289434774,0.0006216605279258364,-0.0012313974534249705
4,10,1.000958356275597,0.000707797862569739,-0.0015050757378524185
4,11,1.0009578800395984,0.000789225769557148,-0.0017949664145402561
4,12,1.0009574754383102,0.0008575990275678435,-0.002089154033336458
4,13,1.0009572604747021,0.000903612738006564,-0.002371148376496397
4,14,1.0009574005033222,0.0009181654876493035,-0.0026211386286239904
4,15,1.0009581003668404,0.0008935884063208563,-0.0028172342687036887
4,16,1.0009595879346065,0.0008246010936935638,-0.002937710983578955
4,17,1.0009620875649485,0.0007086627969175849,-0.0029623659531678712
4,18,1.0009657952003206,0.0005456080713837736,-0.0028738265210717867
4,19,1.0009708608273467,0.00033677244809517587,-0.0026572724584562886
4,20,1.000977387548922,8.406795401046978e-5,-0.0023000127463928717
4,21,1.000985439899277,-0.00021048205620500095,-0.0017902025118937855
4,22,1.0009950492308892,-0.0005444219289859165,-0.0011165998287530083
4,23,1.0010061931162009,-0.0009137952589811964,-0.0002687003644767662
4,24,1.0010187389881455,-0.0013117352130979964,0.0007614560609616438
4,25,1.0010323615095946,-0.0017273332289334151,0.001977320308807063
4,26,1.0010464604580127,-0.0021453127771983737,0.003375220054751301
4,27,1.0010601131231944,-0.002546753904528043,0.004942941290774071
4,28,1.0010720813658962,-0.002910785878475108,0.006658906431790025
4,29,1.0010809018573463,-0.0032169384719711327,0.00849337789010789
4,30,1.001085043705845,-0.003447639565400808,0.010410410742600686
4,31,1.001083118341074,-0.0035902970005531375,0.012371254601858969
4,32,1.0010740663983455,-0.0036385020500068416,0.014337306462028753
4,33,1.0010573045800335,-0.0035921944009243436,0.016273232074817574
4,34,1.001032771582446,-0.003456898175963291,0.018148588658190166
4,35,1.001000917485655,-0.0032423611507310223,0.019939162607045067
4,36,1.0009626050729283,-0.002960953160967392,0.02162677714099396
4,37,1.0009190097734535,-0.00262614998054389,0.023199209934672872
4,38,1.000871475937465,-0.002251282989947547,0.02464901383207874
4,39,1.0008214240586428,-0.0018486506239280397,0.02597295420357368
4,40,1.0007702347961076,-0.0014289704820844172,0.0271706517202275
4,41,1.0007192066333093,-0.0010011333242328539,0.0282441248081286
4,42,1.00066948524111,-0.0005721707377248145,0.029196615326821506
4,43,1.0006220696963721,-0.0001473790195778554,0.030032417444260377
4,44,1.0005777746771203,0.00026947671761927053,0.030755943061325498
4,45,1.0005372664732246,0.0006759104756773538,0.031371815115986065
4,46,1.0005010397108496,0.0010704615166349757,0.03188410924830685
4,47,1.0004694655787292,0.0014524435981187506,0.03229663017261196
4,48,1.0004427703161298,0.0018217219577118739,0.03261224680015274
4,49,1.0004210849490307,0.0021785048000284263,0.03283327656070197
4,50,1.0004044198725002,0.002523165580049022,0.0329608515368234
4,51,1.000392711430143,0.0028560716570882154,0.03299536261220828
4,52,1.0003857921327692,0.003177438886418298,0.03293582829069496
4,53,1.0003834333151929,0.003487178114898645,0.032780382723978055
4,54,1.0003853139503558,0.003784767494055318,0.03252566538009475
4,55,1.0003910610069782,0.0040691040550579465,0.03216737252746978
4,56,1.000400222241595,0.004338395880452389,0.031699752891554904
4,57,1.0004123071797555,0.0045900294732055535,0.031116276485400617
4,58,1.0004267706643593,0.004820516870603615,0.030409410130955564
4,59,1.0004430567696756,0.005025428168590507,0.02957146479061283
4,60,1.0004605986313073,0.005199471288319271,0.02859490913032153
4,61,1.0004788628110777,0.005336579318120468,0.0274733738120632
4,62,1.0004973648546198,0.005430226624012789,0.02620277231770746
4,63,1.0005157014305759,0.005473763573999044,0.024782179630536846
4,64,1.0005335703098552,0.005461026126835874,0.023215886465874955
4,65,1.000550768329887,0.00538691598605828,0.021513405071938052
4,66,1.0005672018009877,0.005248202258449678,0.01969228473429347
4,67,1.0005828304749207,0.005044133161096042,0.01777603216413568
4,68,1.0005976714454878,0.004777086435273993,0.015797312848571426
4,69,1.0006117061344209,0.004452802344594041,0.013792542409144104
4,70,1.0006249140473824,0.004080447411023932,0.011805286326762811
4,71,1.000637169806196,0.0036721329819194644,0.009877241887013947
4,72,1.0006483370170898,0.00324218604264233,0.008052532084255866
4,73,1.000658203518277,0.002805775963383271,0.0063660254385945105
4,74,1.0006666735398417,0.0023776265775489612,0.004849363766601955
4,75,1.0006736764187882,0.00197142645890521,0.00351939123132904
4,76,1.0006791722764306,0.001599802182854711,0.002388542701933317
4,77,1.0006830535186664,0.0012712072819724594,0.0014534165507627044
4,78,1.000685675415727,0.0009846828826554914,0.0007039311105033586
4,79,1.0006877085777945,0.0007316029957104644,0.00011644941947936204
4,80,1.0006894925759986,0.0005095571408213554,-0.00032580798061652066
4,81,1.000690486481947,0.00033409235501761445,-0.0006395233725901672
4,82,1.0006901502287575,0.0002352394861955344,-0.000842376879446308
4,83,1.0006887304297802,0.00024082561754766257,-0.0009770578738447304
4,84,1.0006870354389514,0.0003617387912581135,-0.0011027706829050542
4,85,1.0006858884049943,0.0005894422003807805,-0.0012904316565584425
4,86,1.0006855370258523,0.0008909877661151703,-0.0015904678955986737
4,87,1.0006849073207689,0.001209248445444065,-0.0020226130530688986
4,88,1.000684604444929,0.0014681887885786805,-0.0025590007233604307
4,89,1.0006828124207028,0.00157755112655764,-0.0031160453294226368
4,90,1.0006826698660343,0.0014617606772323404,-0.0035992382501187337
4,91,1.0006822932605002,0.0010322077210552652,-0.0038478576645800105
4,92,1.0006746173691394,0.00035158249651498193,-0.003845582673032287
4,93,1.000714144054173,-0.0005234198116140765,-0.003705539822122514
4,94,1.0006908509921657,-0.001995670587119427,-0.002862021028855672
4,95,1.0006521136871622,-0.0032212415011786603,-0.00237625908749415
4,96,1.000977039725348,-0.0044565856043881896,-0.002011495258126577
4,97,1.0005765071248964,-0.009743693973744524,0.0025777600268935244
4,98,1.0000504334654128,-0.014273358646084078,0.0030665380998444896
4,99,1.0008853439893206,-0.010659551653763248,-0.002072696264315505
4,100,1.0012716232359762,-0.0015522584910137107,-0.0024804003947259687
4,101,0.9997739466040091,0.05206879892395417,-0.0005522949500174611
5,1,1.000958976487639,8.600208655319378e-5,-8.700091095863495e-6
5,2,1.0009612828672727,0.00022978056534258008,-5.94835697458383e-5
5,3,1.0009609386403775,0.00032919726798921625,-0.00015386160771877242
5,4,1.0009606236531727,0.0004094524998283843,-0.00028299389510314096
5,5,1.0009602096786128,0.00048710270408970516,-0.0004407898301597063
5,6,1.0009598312370247,0.000570955350288364,-0.000622465080376229
5,7,1.0009595864995626,0.0006635470402685664,-0.0008249226710996191
5,8,1.000959311414404,0.000761445461710522,-0.0010469029824047439
5,9,1.0009589569907813,0.0008582901999358056,-0.0012838952965311446
5,10,1.0009585689887621,0.0009451794914199456,-0.0015269158355823668
5,11,1.0009581695477405,0.0010101625935153345,-0.0017625287365406275
5,12,1.0009578008903817,0.001039328349230162,-0.0019737430374400385
5,13,1.0009575421307035,0.001018679612619955,-0.002140509897823914
5,14,1.000957510416119,0.0009360814761357911,-0.002242093422355888
5,15,1.000957858677122,0.0007828551385984042,-0.0022586656914166765
5,16,1.0009587651649092,0.0005544952701142429,-0.002173457384521833
5,17,1.000960416955497,0.00025023658991444605,-0.001972826812532266
5,18,1.0009630028450212,-0.0001283317757779292,-0.0016459635911768547
5,19,1.0009667189059004,-0.0005789278500668551,-0.0011826032012308037
5,20,1.0009717902247701,-0.0010996121720794868,-0.0005715365760980234
5,21,1.0009784824263182,-0.0016885188806058278,0.00020091422809337772
5,22,1.000987076152968,-0.0023421726355015494,0.0011497022011568055
5,23,1.0009977814137294,-0.0030529916241578254,0.002288901106093183
5,24,1.0010106028384107,-0.003807010994147579,0.0036272967548231223
5,25,1.0010251990290302,-0.0045828419778376085,0.005164836592059485
5,26,1.001040774455274,-0.005352401027414431,0.0068891701864711025
5,27,1.0010560597278861,-0.0060834025331460125,0.008775228344700514
5,28,1.001069389863492,-0.0067430954634080205,0.010786145944727385
5,29,1.0010789108121345,-0.007302397924698965,0.01287739183683472
5,30,1.001082828073906,-0.007739410507742557,0.015000963504840554
5,31,1.0010796800038826,-0.008041546663494626,0.017110801805688417
5,32,1.0010685034069973,-0.008205948061886362,0.019165998930698758
5,33,1.0010489444293404,-0.008238412727905459,0.02113382927066097
5,34,1.0010212128972846,-0.008151329810487384,0.02298988391646476
5,35,1.0009860310181322,-0.007961259167636854,0.024718446458591843
5,36,1.0009444640473932,-0.00768661739001864,0.02631058330406819
5,37,1.0008978328455005,-0.007345808347964671,0.02776349564335854