TITLE="CMs_NON_Orthogonal Re = 10000.0"
VARIABLES = X,Y,Rho,U,V
ZONE
I = 101	J = 101
F=POINT
1,1,1.0009347467789151,2.8036259162517976e-6,-3.3426448079640124e-6
1,2,1.000936057343481,7.078587616314061e-6,-2.1440359373078033e-5
1,3,1.0009359488520213,7.4233975937646615e-6,-4.4608451516964466e-5
1,4,1.0009362318248671,8.470194363572246e-6,-7.073617800821817e-5
1,5,1.0009365726111814,9.749413465016273e-6,-0.00010154137444376516
1,6,1.0009369454262516,1.0997628712451224e-5,-0.0001381363507746997
1,7,1.0009373712019536,1.2052213841361794e-5,-0.00018133182974952748
1,8,1.0009378687159385,1.2720078602107526e-5,-0.00023219503508478854
1,9,1.0009384345107593,1.2669889419200197e-5,-0.00029176826261334294
1,10,1.0009390549941612,1.1396283232663159e-5,-0.00036115845437780154
1,11,1.0009397080482532,8.222477449731539e-6,-0.0004410533471050324
1,12,1.0009403753613348,2.299092176566747e-6,-0.0005317463039633429
1,13,1.0009410535900227,-7.382137609151017e-6,-0.000632635349324426
1,14,1.00094177187909,-2.195088080714695e-5,-0.000742224527603311
1,15,1.0009426108176387,-4.2600464444440926e-5,-0.0008577048941638455
1,16,1.0009437193673227,-7.049909652153904e-5,-0.0009750753612800296
1,17,1.0009453201914031,-0.00010670090323043771,-0.0010889589915052645
1,18,1.0009476999604132,-0.0001520545278799209,-0.0011929249900598333
1,19,1.0009511805481877,-0.0002071430297456883,-0.0012795266101963175
1,20,1.000956077677559,-0.0002722367652331278,-0.0013407091486294447
1,21,1.0009626509058038,-0.000347272957278077,-0.0013679207171372336
1,22,1.0009710544569885,-0.00043183110000740864,-0.0013525073041697627
1,23,1.0009812903156055,-0.0005251160472082891,-0.001285904644403573
1,24,1.0009931682405724,-0.0006259342981624221,-0.0011601501687493923
1,25,1.0010062714529613,-0.0007326915504254764,-0.0009683234146506012
1,26,1.001019933873236,-0.0008434154814748092,-0.0007052839266429518
1,27,1.001033235515146,-0.0009558298923200039,-0.0003682822031437539
1,28,1.0010450323186202,-0.0010674707414241882,4.236260067621132e-5
1,29,1.0010540284830243,-0.0011758407921170877,0.0005229291263092747
1,30,1.0010588879348639,-0.0012785761992066091,0.0010661300955802598
1,31,1.0010583669245032,-0.0013736210842702887,0.0016614051097905353
1,32,1.0010514494369391,-0.001459383382125388,0.002295457265763671
1,33,1.001037463685383,-0.0015348379437566215,0.002953190290936068
1,34,1.0010161602411245,-0.0015995377807865561,0.0036187016869342137
1,35,1.000987737440809,-0.0016535477586369887,0.004276340814663592
1,36,1.0009528132005807,-0.0016973278727128824,0.004911527403399118
1,37,1.0009123523650412,-0.0017316051264548334,0.005511421601237503
1,38,1.0008675671435572,-0.0017572507877971855,0.006065268647745704
1,39,1.000819808454056,-0.0017751812794386816,0.006564583474205758
1,40,1.0007704648952511,-0.0017862820374005255,0.007003079175714543
1,41,1.0007208785788595,-0.001791359384694525,0.007376525593440376
1,42,1.0006722839211524,-0.0017911116955223812,0.007682467903802179
1,43,1.000625767406039,-0.0017861203447189337,0.00791996576307077
1,44,1.0005822479475242,-0.00177685055873139,0.008089282353523011
1,45,1.0005424701484755,-0.0017636629215516647,0.008191640941671628
1,46,1.0005070103427798,-0.001746827186328362,0.008228982034911838
1,47,1.000476285610299,-0.0017265407880496222,0.008203792689658337
1,48,1.0004505699486326,-0.001702945376363865,0.008118963566039805
1,49,1.0004300057269508,-0.0016761454303867113,0.007977692813441305
1,50,1.0004146211055212,-0.0016462227790221327,0.007783441416429032
1,51,1.0004043371499063,-0.0016132530153620428,0.007539886135167343
1,52,1.0003989839919565,-0.0015773158263644202,0.007250962165170766
1,53,1.0003983015756908,-0.0015385093386001125,0.00692082375978713
1,54,1.0004019564000528,-0.0014969538106033896,0.006553967722582524
1,55,1.0004095364142644,-0.0014528058317415029,0.00615514176132993
1,56,1.0004205727926534,-0.001406250130310724,0.005729558601491701
1,57,1.0004345303525461,-0.0013575190437067571,0.005282658810981268
1,58,1.0004508400445649,-0.00130686139093572,0.004820463884091006
1,59,1.0004688856071087,-0.0012545813092905485,0.00434903860712205
1,60,1.0004880520466093,-0.0012009621175016994,0.0038751205209465785
1,61,1.0005077071280812,-0.0011463572403111728,0.0034050123492150625
1,62,1.0005272681850657,-0.0010910273236197782,0.0029458167526317707
1,63,1.0005461734174972,-0.001035347063838829,0.0025032759109517508
1,64,1.0005639649637714,-0.0009794827039636893,0.002084297564294165
1,65,1.0005802421359646,-0.0009238162278721152,0.0016928905083698673
1,66,1.0005947497004037,-0.0008683730831208549,0.0013352012070124647
1,67,1.0006073081295233,-0.0008135348933521473,0.0010122421324247153
1,68,1.0006179019857604,-0.000759205839420495,0.0007290228773538805
1,69,1.0006265786716175,-0.0007057779033526414,0.0004827434523612453
1,70,1.000633504612923,-0.0006531493402536717,0.0002772656371970185
1,71,1.000638886910504,-0.0006016346276878723,0.00010609727642928992
1,72,1.0006430558884638,-0.0005512254157156966,-2.7954296750785627e-5
1,73,1.0006462652604304,-0.0005023957926971898,-0.0001339345965387677
1,74,1.0006486854050747,-0.00045524344600952204,-0.0002089837966245267
1,75,1.0006505578736276,-0.0004098758277969081,-0.0002634706827735427
1,76,1.0006523285538527,-0.0003663890521317488,-0.0002948874428604295
1,77,1.0006541850231663,-0.0003255434619846948,-0.00031380391956911874
1,78,1.0006558861391732,-0.0002879506847181152,-0.0003148868209933096
1,79,1.0006571569733573,-0.00025379648472284317,-0.00030623211879765046
1,80,1.0006581737248923,-0.00022243896671959257,-0.0002815657548875788
1,81,1.0006593354323778,-0.00019323567342930753,-0.00025167971697238244
1,82,1.0006609556603725,-0.0001654491283235342,-0.00021291438212966504
1,83,1.0006630385064224,-0.00013874305729370104,-0.00017873028083298853
1,84,1.000665475907324,-0.00011266355751905138,-0.00014589692021419305
1,85,1.0006681721426909,-8.746842018456811e-5,-0.00012879383760910318
1,86,1.0006708892714926,-6.308605696752775e-5,-0.00012335477677607833
1,87,1.0006736806879548,-4.1338474211191436e-5,-0.00014342186964090008
1,88,1.0006759802139982,-2.3783473773895206e-5,-0.00017822351047700626
1,89,1.0006777217589256,-1.2507404373581348e-5,-0.00023307332459920606
1,90,1.000678734955574,-1.2053675047251612e-5,-0.0002806055188580188
1,91,1.0006788268823759,-1.830304038360362e-5,-0.0003108634547255174
1,92,1.0006877775444631,-5.133283529082103e-5,-0.0002708999438549626
1,93,1.0006912637639709,-0.00011369624389996609,-9.002080768804287e-5
1,94,1.0006921775791922,-0.00019471039579359629,0.0003120363980422734
1,95,1.0006918296404905,-0.00028239575290087886,0.0009786813230922595
1,96,1.0007512599929276,-0.00025010201366505995,0.0017580017103568251
1,97,1.0009372500950668,-0.0010012295355585666,0.0034311965346649873
1,98,1.0002525269242926,-0.0010694931381289338,0.006591796662363494
1,99,1.00071316202118,0.0005798745213438136,0.007646744891840241
1,100,1.0018908276260563,-0.0076886024291948326,0.016395038518225057
1,101,0.9964796167173715,0.02652547734427239,0.01399767317001033
2,1,1.0009332182415176,2.13870658615571e-5,-6.936002127562113e-6
2,2,1.000934500597367,4.640094508837659e-5,-4.3473914567965294e-5
2,3,1.0009337819947075,5.4444353357270096e-5,-0.00010093327143835881
2,4,1.000933599091411,6.336736168293941e-5,-0.0001695875804592404
2,5,1.0009334175340656,7.597229566587106e-5,-0.0002511418826567866
2,6,1.0009331290104908,9.096364070557834e-5,-0.00034923456068726384
2,7,1.0009327826960113,0.00010847429021769729,-0.000466200575948605
2,8,1.0009323661111744,0.00012907569021558136,-0.0006046961609030403
2,9,1.0009318631067239,0.0001531085152290124,-0.0007673550912234402
2,10,1.0009312577984166,0.00018050955352960223,-0.0009564632070995327
2,11,1.0009305539180848,0.00021075996929155737,-0.0011729690371083987
2,12,1.0009297895963942,0.0002428783378119695,-0.001416012319758654
2,13,1.000929056602748,0.00027542803719697703,-0.00168203873718716
2,14,1.0009285176749154,0.00030660523067090913,-0.0019645549518015597
2,15,1.0009284207114097,0.0003344109185591449,-0.002253704091227391
2,16,1.0009290975426444,0.00035687201883727304,-0.002536655586974286
2,17,1.0009309470055971,0.00037224890525854417,-0.002797915637999129
2,18,1.0009343973859177,0.0003791602559045157,-0.0030202727950878103
2,19,1.0009398604952435,0.0003765990012815178,-0.0031854000623266284
2,20,1.0009476806139108,0.00036386404452067793,-0.0032747092095239735
2,21,1.0009580912157006,0.0003404887361703354,-0.0032696962518415154
2,22,1.0009711755631512,0.0003062546836230002,-0.00315252152682701
2,23,1.0009868341689359,0.0002613516554487106,-0.0029063753655675004
2,24,1.001004748758005,0.00020666741560577834,-0.0025163848863703525
2,25,1.001024347933577,0.00014411766068351953,-0.0019705924705169797
2,26,1.0010447770168422,7.687287179570704e-5,-0.0012614176696286183
2,27,1.0010648969485505,9.360325885722384e-6,-0.0003868871888766196
2,28,1.0010833229948561,-5.300487113383437e-5,0.0006482206908977454
2,29,1.0010985140769773,-0.0001043150526461082,0.0018319768808214077
2,30,1.001108896976818,-0.00013880801722024745,0.00314540851401393
2,31,1.0011130199687879,-0.00015154311299404565,0.004563514965760873
2,32,1.0011097059517537,-0.00013899032557071678,0.006056752819957955
2,33,1.0010981866930801,-9.94040336633525e-5,0.007593086252882633
2,34,1.0010781815611194,-3.2910750680346885e-5,0.009139982794798164
2,35,1.0010499187544002,5.8676412679797566e-5,0.010666348697409721
2,36,1.0010140881973337,0.00017223561246889393,0.012143920418247606
2,37,1.000971754751615,0.0003038031880370348,0.013548279796167975
2,38,1.0009242379815217,0.00044903405668693,0.01485925852407244
2,39,1.000872996180027,0.0006035913367507813,0.016061034243090796
2,40,1.0008195133005833,0.0007634319962691405,0.017141821772059678
2,41,1.0007652176923352,0.0009249861010635978,0.018093453548865622
2,42,1.0007114151697507,0.001085241000789253,0.01891079278023318
2,43,1.000659257765773,0.0012417541702407031,0.019591175737842338
2,44,1.000609719759835,0.0013926135622761994,0.020133856917146295
2,45,1.0005636027712057,0.0015363695198022927,0.02053951770909801
2,46,1.0005215356876613,0.0016719479449464202,0.020809892924457386
2,47,1.0004839975259483,0.0017985635842569974,0.020947403261174946
2,48,1.0004513239175312,0.0019156306888914222,0.020955014205532713
2,49,1.0004237352294296,0.002022688859845202,0.02083596546846674
2,50,1.0004013389899176,0.002119329045190488,0.0205938805217577
2,51,1.0003841581846364,0.002205143964656656,0.020232524131553655
2,52,1.0003721243432155,0.002279673891971207,0.01975618945825508
2,53,1.000365106375491,0.0023423874628319395,0.019169384109539885
2,54,1.0003628916357359,0.002392648405569744,0.018477549961883413
2,55,1.000365219324682,0.002429734054841965,0.01768653384697651
2,56,1.0003717473907625,0.0024528251133967907,0.016803730505863063
2,57,1.000382097502838,0.0024610722397212866,0.015837119978748725
2,58,1.0003958050652892,0.0024536099492643475,0.014796963412893705
2,59,1.000412385808161,0.0024296794369554156,0.013694080881541351
2,60,1.0004312649658196,0.002388659861094854,0.012542281843945787
2,61,1.0004518782719434,0.00233024154161014,0.01135542843670171
2,62,1.0004735744070432,0.002254449975116407,0.01015087155206662
2,63,1.0004957637463447,0.0021618385818567786,0.008944734247972595
2,64,1.0005177850665568,0.0020534640808077004,0.007756783369886487
2,65,1.0005391111337718,0.0019310307652586026,0.006603330244252995
2,66,1.000559167511277,0.0017967756951536645,0.00550420440832214
2,67,1.0005775929079594,0.001653522969037014,0.004472753466197094
2,68,1.0005939981197316,0.001504442002634756,0.003525770210308863
2,69,1.0006082704452521,0.001352930244917558,0.002670342229475107
2,70,1.0006202645505131,0.0012023735298975103,0.001917511181622631
2,71,1.0006301157920536,0.001056125057256575,0.0012660637102999226
2,72,1.0006379024596996,0.0009169966610081841,0.0007200630013085213
2,73,1.0006440072784206,0.0007868692106364063,0.0002700819914217369
2,74,1.0006486108608508,0.0006670878276870046,-8.527457325031414e-5
2,75,1.0006520010977853,0.0005594057856205276,-0.00036078752381298507
2,76,1.0006544268911957,0.000464816169367663,-0.000561793234868193
2,77,1.0006565667685072,0.0003815168251906607,-0.0007071135096379257
2,78,1.000658616607683,0.0003058627503162056,-0.0008003835581294192
2,79,1.0006604117009543,0.00023633175879253084,-0.0008543530567591146
2,80,1.0006614689780582,0.00017540339438218723,-0.0008672190461741983
2,81,1.0006619566799198,0.000127326082949586,-0.0008558280857432813
2,82,1.0006621262269153,9.547078849269525e-5,-0.0008293228580637698
2,83,1.000662411794173,8.138993037077162e-5,-0.0008174318818256489
2,84,1.0006625733295609,8.511327376615799e-5,-0.0008363717928008437
2,85,1.000662530460188,0.00010667938540498645,-0.0009186449635436996
2,86,1.0006619323493822,0.00014373475095799332,-0.0010774562397290277
2,87,1.0006603804898822,0.00019043599869021763,-0.001336382192759317
2,88,1.0006582900972036,0.00023411750460871532,-0.0016883655355124363
2,89,1.0006550640666412,0.00025663987623669005,-0.0021218301308070044
2,90,1.0006523858325553,0.00024118044416146294,-0.0025897968286993575
2,91,1.000653283108087,0.00015234382664849004,-0.003022310308077228
2,92,1.0006586640136805,-3.934166587272577e-5,-0.003315195646593421
2,93,1.0006849348510054,-0.00041706484152121987,-0.0033461155157963112
2,94,1.0006957471647813,-0.0008962585604329804,-0.00293553149548346
2,95,1.000754007642625,-0.0012308764549363508,-0.002242373333149223
2,96,1.0008187799877282,-0.002334670816994537,-0.00048054329137822027
2,97,1.0007198108938635,-0.0037859536116800607,0.001951390660616261
2,98,1.0014745185910991,-0.004538142716224293,0.0039125452940548255
2,99,1.0003777955853421,-0.010818509331718016,0.016132366083777657
2,100,0.999592210971335,-0.01223923788444983,0.02178300114204844
2,101,1.003739558052953,0.05152200251606169,0.005625696240107004
3,1,1.0009332821516965,4.033995971711246e-5,-6.687596355594632e-6
3,2,1.0009352439895625,0.00010003337817953654,-4.692909590944873e-5
3,3,1.0009346277312248,0.00012922902736618264,-0.00012054149452577365
3,4,1.000934100895575,0.00015305312049297614,-0.0002182542539169727
3,5,1.0009338387068292,0.0001827511016929393,-0.0003356091101166134
3,6,1.0009335542782374,0.0002180256523034534,-0.00047562543078084267
3,7,1.0009331579860177,0.0002576726463383175,-0.0006421595761985105
3,8,1.0009326827250749,0.0003017191487547545,-0.0008380011216787598
3,9,1.0009321117242744,0.0003493891496754701,-0.0010651959993182112
3,10,1.0009314379238035,0.0003983093195165546,-0.001324492639653112
3,11,1.0009306827215587,0.00044450612477466413,-0.0016138526676520888
3,12,1.0009299099298552,0.00048255558289268775,-0.0019277775322352965
3,13,1.0009292408864678,0.0005059039907727924,-0.002256419159626954
3,14,1.0009288643568002,0.0005074074359237323,-0.002585798709595967
3,15,1.0009290379545301,0.00048008186089537787,-0.0028980942903941717
3,16,1.0009300747348722,0.0004178875096890578,-0.003173034954840633
3,17,1.0009323142721362,0.0003163136988879762,-0.0033890997586935923
3,18,1.0009360853197968,0.00017259637840985907,-0.0035251461594643777
3,19,1.0009416681097543,-1.4437072156700409e-5,-0.0035611481886951087
3,20,1.0009492672329445,-0.00024471594178104947,-0.003478828300183705
3,21,1.0009589951350089,-0.0005171915742552176,-0.00326141778081866
3,22,1.0009708626135547,-0.0008297802700614102,-0.002893757491719282
3,23,1.000984761761855,-0.0011789156176415234,-0.002362322536678569
3,24,1.0010004321705068,-0.0015588610350986526,-0.0016562201993255542
3,25,1.0010174095537898,-0.0019611077387459938,-0.0007683651443139905
3,26,1.0010349756128611,-0.0023741974749452795,0.0003027452057428974
3,27,1.001052134386429,-0.0027841584024921573,0.0015518041174106064
3,28,1.0010676312240798,-0.0031755181054976974,0.002965713952468099
3,29,1.0010800250514944,-0.0035327187293046304,0.0045237936655985545
3,30,1.0010878121487194,-0.003841688180847953,0.006198616776257001
3,31,1.0010895937217403,-0.0040912814407372605,0.007958024207690314
3,32,1.0010842469260335,-0.004274298560478172,0.009767333465612715
3,33,1.00107106919024,-0.0043878918987970495,0.011591954162409435
3,34,1.001049854013316,-0.004433337441653439,0.013399361845918376
3,35,1.0010209020564695,-0.004415311053703769,0.015160821422521741
3,36,1.0009849582721824,-0.004340885924464426,0.01685211811041702
3,37,1.0009431158622635,-0.004218479195271347,0.01845401085596803
3,38,1.0008966886331425,-0.0040569119176479705,0.01995187676532047
3,39,1.0008470990364786,-0.003864681842158114,0.021335382644660447
3,40,1.0007957675449235,-0.00364947005300811,0.02259764559741037
3,41,1.0007440422137357,-0.00341786824390462,0.02373468619590804
3,42,1.000693135628653,-0.003175277436926459,0.024744553840443936
3,43,1.0006441035360532,-0.002925936858397222,0.02562687256933705
3,44,1.0005978218536415,-0.002673029987525613,0.026382125283056904
3,45,1.000554997842664,-0.002418841400779922,0.027011385596971894
3,46,1.0005161684823496,-0.002164927131164514,0.02751579689878673
3,47,1.000481725631196,-0.0019122945247211289,0.027896473569495324
3,48,1.000451921129867,-0.0016615659040135856,0.028154153643754697
3,49,1.0004268939675776,-0.0014131401132686176,0.028289219785914616
3,50,1.0004066750419018,-0.0011673275618040086,0.02830150893067611
3,51,1.0003912109178454,-0.000924486707225594,0.028190405297811697
3,52,1.0003803670348235,-0.000685128798269108,0.027954825079834243
3,53,1.0003739465965982,-0.0004500319313613711,0.02759334077098512
3,54,1.0003716943243723,-0.00022031327609143113,0.027104407080740977
3,55,1.0003733103751717,2.4835852686451297e-6,0.026486467202600096
3,56,1.0003784579256605,0.0002163640193098024,0.025738537468314025
3,57,1.000386771275397,0.0004188414158870752,0.024860200711792502
3,58,1.0003978699911142,0.0006069918863878434,0.02385270866469135
3,59,1.0004113581318503,0.0007774933457822006,0.022718660004476816
3,60,1.0004268459412071,0.000926798965070078,0.021463793088854852
3,61,1.0004439348592842,0.0010512853921170807,0.020095959816809103
3,62,1.0004622465371167,0.001147562572954975,0.01862775762408863
3,63,1.000481389501344,0.0012127197644238549,0.017074169583583057
3,64,1.0005009960265765,0.001244725126237175,0.015456156291117103
3,65,1.0005206734461187,0.0012426697465709527,0.01379615096670606
3,66,1.0005400548532712,0.0012071210926623821,0.012122776471453036
3,67,1.0005587478230349,0.0011402126492696565,0.010463453442393385
3,68,1.0005763964150916,0.0010457417439174613,0.008850642994264126
3,69,1.0005926522127528,0.0009289049215448966,0.007311257999608336
3,70,1.0006072450366081,0.00079608698108966,0.00587508845421406
3,71,1.0006199640326205,0.000654431961031161,0.004561544213295805
3,72,1.0006306806783158,0.0005112141874666831,0.003391124592034874
3,73,1.0006393992710565,0.00037277263420287327,0.0023701725406999174
3,74,1.0006462726527234,0.000244259183757781,0.001505743598967054
3,75,1.000651492123979,0.00013073977994475274,0.0007902852923025965
3,76,1.0006551554651326,3.691583746693352e-5,0.0002192943478631564
3,77,1.0006576254833859,-3.689399634035419e-5,-0.0002268275882152475
3,78,1.000659521149288,-9.681283090752423e-5,-0.0005621439105474315
3,79,1.0006611984400837,-0.00014913601069269178,-0.0008079735056750046
3,80,1.0006622763877415,-0.0001913258444092133,-0.0009710124988264076
3,81,1.0006622755022656,-0.0002112040879160854,-0.001069390325874936
3,82,1.0006612308353255,-0.0001939696584994218,-0.0011224817379859738
3,83,1.0006596408695199,-0.00012949201997384247,-0.0011741559627041
3,84,1.0006579201785504,-1.4829292826558011e-5,-0.0012675064931993222
3,85,1.0006561324355652,0.0001471116076166911,-0.0014551568845936089
3,86,1.0006540119623215,0.00034613470193744773,-0.0017712983338305458
3,87,1.0006514750997604,0.0005571867390316343,-0.002240375183674126
3,88,1.000647428447648,0.0007445688246782563,-0.0028463831256031725
3,89,1.0006437042156788,0.0008620202137995654,-0.0035558793644274566
3,90,1.0006399827565133,0.0008508571537064511,-0.00427037647361299
3,91,1.0006381707402476,0.0006725774918145527,-0.004898872868659677
3,92,1.0006429190467963,0.00023662596073519191,-0.005291528210363211
3,93,1.0006374164080563,-0.0004282466156671246,-0.005394712769357603
3,94,1.0006941867773922,-0.0012138428935910966,-0.0053513525051067734
3,95,1.0007012730233997,-0.002535313869296417,-0.004337490018894442
3,96,1.0005711079902164,-0.0036274341571388576,-0.003286310735979163
3,97,1.0010240419081495,-0.005239149726481785,-0.0029160411776422306
3,98,1.0006496852940154,-0.012335802066491403,0.0035819535250467397
3,99,0.999490627035168,-0.016956623208289653,0.005936154672325915
3,100,1.0005504846552977,-0.0027582628140250453,-0.0006346202635078651
3,101,1.000468819840764,0.05517742423214106,-0.0019289511145095506
4,1,1.000932879013802,6.324853258489123e-5,-7.900301922645827e-6
4,2,1.0009350544010716,0.00016325999823967749,-5.362659518858185e-5
4,3,1.0009347329433311,0.00022581981618355237,-0.0001386824280918131
4,4,1.0009342419503706,0.0002754492710921555,-0.0002564881951106216
4,5,1.0009337886872565,0.00032844565064281357,-0.00040066716429148163
4,6,1.000933530273229,0.00039061650888846315,-0.0005688638818379637
4,7,1.0009332504181547,0.0004614709526348451,-0.0007633849800146094
4,8,1.0009328790874699,0.000539749595232144,-0.0009862424329541782
4,9,1.000932459718094,0.0006236645914302587,-0.0012363802858625069
4,10,1.0009320059900657,0.00070905569988579,-0.0015100634810260995
4,11,1.000931553920302,0.0007892158824810027,-0.0017995569283659571
4,12,1.0009311794909166,0.0008555520324562302,-0.0020927915119439704
4,13,1.0009310021459126,0.0008985249076553433,-0.0023730989653167156
4,14,1.0009311891751547,0.0009088771086584466,-0.002620530979949487
4,15,1.000931947495857,0.0008789319819407406,-0.002813164048612503
4,16,1.0009335067640053,0.0008035820516567452,-0.0029294080755891748
4,17,1.0009360921140045,0.000680587562214719,-0.0029493446788399894
4,18,1.0009398991077045,0.0005100761245429667,-0.0028559490411445127
4,19,1.0009450775163824,0.0002935111841273853,-0.002634639443166341
4,20,1.000951733180355,3.2680017540838586e-5,-0.0022727028244880197
4,21,1.000959938506826,-0.000270723219048033,-0.001757940130272622
4,22,1.0009697366179493,-0.0006145965463491914,-0.0010785247560659763
4,23,1.00098111462429,-0.0009951329666694642,-0.00022335529802939351
4,24,1.000993938694885,-0.0014052525793979047,0.0008158671348187986
4,25,1.0010078659221702,-0.0018334662133071325,0.0020425044920173016
4,26,1.0010222629827732,-0.002263688415452812,0.0034523251131731592
4,27,1.0010361641046455,-0.002676165798447872,0.005032188829600068
4,28,1.001048285654434,-0.003049357430064014,0.006759384995391001
4,29,1.0010571257978014,-0.003362415675793015,0.00860304445079944
4,30,1.0010611313122681,-0.0035977376090450468,0.01052626550750955
4,31,1.0010589139545933,-0.0037430220154751875,0.012489656111969083
4,32,1.0010494375805927,-0.0037923841785284526,0.014454327096184348
4,33,1.0010321606069748,-0.0037464010375197784,0.01638500396731091
4,34,1.001007073321707,-0.0036112307847033977,0.01825156570778628
4,35,1.0009746790385305,-0.003397164325686693,0.02003030323751893
4,36,1.0009358873402776,-0.0031169738719560793,0.021703624551284214
4,37,1.0008919098466622,-0.0027843827497600524,0.02325991425177804
4,38,1.0008441134108972,-0.00241282674230796,0.024692289854620592
4,39,1.000793928186876,-0.002014592186070366,0.025998023879440474
4,40,1.0007427321869558,-0.0016002998837762901,0.02717715800472184
4,41,1.0006918123084967,-0.0011786899155588413,0.028232058042256234
4,42,1.000642295274211,-0.0007566152631319032,0.029166229070042845
4,43,1.0005951575159022,-0.00033918562952145345,0.029984167944499537
4,44,1.0005511884467937,7.001469596349107e-5,0.03069042385313082
4,45,1.0005110294639799,0.00046866623850258987,0.03128971712260839
4,46,1.0004751508644938,0.0008554561622691578,0.031786176578410125
4,47,1.0004439023141807,0.001229826276288086,0.0321836400077523
4,48,1.000417490839333,0.0015917508850889545,0.032484984974795066
4,49,1.0003960323039276,0.001941530717851752,0.03269253558826595
4,50,1.0003795251129526,0.002279618439110904,0.0328074256383815
4,51,1.0003678982695765,0.002606451570332926,0.032830064233777705
4,52,1.0003609805283933,0.0029223114619991155,0.03275950420260511
4,53,1.0003585443766447,0.0032271753886784827,0.032593950836703134
4,54,1.0003602736124142,0.003520593961736795,0.03233015307721219
4,55,1.00036580482867,0.0038015494491963992,0.03196397342389989
4,56,1.000374698613608,0.004068352849101395,0.03148988204132033
4,57,1.0003864812856382,0.0043185178911027446,0.03090163777473711
4,58,1.0004006261514395,0.004548709990555795,0.030192047109614838
4,59,1.0004165976439499,0.004754681573488569,0.02935381273950599
4,60,1.0004338478843275,0.0049313449345046514,0.028379796311368274
4,61,1.0004518609822644,0.005072852307383243,0.027264015289255598
4,62,1.0004701646065304,0.005172889633351349,0.026002657705946685
4,63,1.000488362922043,0.005224989036571571,0.024594970054701334
4,64,1.000506152980493,0.005223099757092596,0.023045139238896308
4,65,1.0005233262197868,0.005162135977545294,0.02136238968426658
4,66,1.0005397769633901,0.005038737881743158,0.019563565994134644
4,67,1.000555453559977,0.004851863209933955,0.01767132668778412
4,68,1.0005703608306156,0.004603424504690261,0.015717057957318648
4,69,1.000584475760967,0.004298542386855015,0.0137360055782199
4,70,1.0005977773808272,0.003945647308316629,0.011770287394269724
4,71,1.000610149948882,0.0035560706832025077,0.009860680836698485
4,72,1.0006214668264284,0.0031433966722094055,0.008050332157723243
4,73,1.0006315281762976,0.002722159736910493,0.006374050721888481
4,74,1.0006402443699538,0.00230658344991453,0.0048634018816209115
4,75,1.0006475544340685,0.0019100373204444185,0.003536123241672731
4,76,1.0006534234524445,0.0015452146719392454,0.002405322313379082
4,77,1.0006577258970593,0.0012213190759835877,0.0014692413762186437
4,78,1.000660767244943,0.0009386677353999983,0.0007188188175444804
4,79,1.000663189182999,0.0006895547677667018,0.00013146703353585808
4,80,1.0006653527943064,0.0004713743447111746,-0.0003101270947937207
4,81,1.0006667486198708,0.00029868803025487724,-0.0006227038149784784
4,82,1.0006668203532645,0.00020075529344477507,-0.0008240152138014879
4,83,1.0006657654462932,0.00020551049269694095,-0.0009553294268623386
4,84,1.000664356061162,0.000324744533758225,-0.0010750997531564733
4,85,1.000663421310481,0.0005514019679308209,-0.0012536786002913113
4,86,1.0006632577382661,0.0008543251377048758,-0.0015430460064850425
4,87,1.0006628318856856,0.001177513739424422,-0.0019649363850220637
4,88,1.0006627576149167,0.0014443722399613821,-0.002494406431628249
4,89,1.0006611919036004,0.0015618704746643232,-0.003048750802246732
4,90,1.0006611681084228,0.0014505210098516579,-0.00353282445195607
4,91,1.0006608428003525,0.0010193340304783414,-0.0037831523913390203
4,92,1.0006531048123066,0.0003325787725763091,-0.0037803712646969356
4,93,1.0006924809708002,-0.000545119451753169,-0.0036389683037809854
4,94,1.0006692435802003,-0.0020095705588052746,-0.002795287069490568
4,95,1.0006301283969499,-0.0032117346637364876,-0.002312134641487458
4,96,1.0009547496589375,-0.004406470194956716,-0.001963210045314916
4,97,1.0005542825366773,-0.009669746622325573,0.0026157028901966483
4,98,1.000029596951333,-0.014213309097298007,0.003099898795824625
4,99,1.0008628815430611,-0.010623722336619476,-0.0020617921606746383
4,100,1.0012477329814797,-0.0015501679313089005,-0.0024829717237010787
4,101,0.9997516220668069,0.052062160970175804,-0.0005523916826512138
5,1,1.0009325248419856,8.745801045449872e-5,-8.796625502084861e-6
5,2,1.000934863396112,0.00023312453125760258,-6.008358324851829e-5
5,3,1.0009345137213985,0.0003329579869741812,-0.00015512356761507437
5,4,1.0009341994302354,0.00041299355247680704,-0.0002848636120265812
5,5,1.0009337886720182,0.0004904533404149014,-0.00044315024248887724
5,6,1.0009334192352541,0.0005743381620928277,-0.000625172098005819
5,7,1.0009331882768802,0.000666995766184048,-0.0008277966111833188
5,8,1.0009329276515337,0.0007648311691339688,-0.0010497337228198029
5,9,1.0009325890797585,0.0008614662111620183,-0.0012863915489526206
5,10,1.0009322209319145,0.0009479786659947169,-0.0015286848490282208
5,11,1.0009318459984764,0.0010123166904121835,-0.0017630794020264081
5,12,1.0009315063294857,0.0010404494033813881,-0.0019725203302009293
5,13,1.0009312812876818,0.0010183403566359447,-0.002136942775770327
5,14,1.0009312891632136,0.000933979406115793,-0.0022357077175402433
5,15,1.0009316845272667,0.0007790185077813203,-0.0022492129847320793
5,16,1.0009326471286657,0.0005494440140558057,-0.0021610195524161225
5,17,1.000934364853368,0.00024498785215136857,-0.0019577698828917205
5,18,1.00093702737738,-0.00013247165165915998,-0.001628709713980741
5,19,1.000940833775342,-0.0005807243900128459,-0.001163219452366961
5,20,1.0009460163029604,-0.0010982423546894713,-0.0005493171963430335
5,21,1.0009528503514498,-0.0016836904437941469,0.00022769477320288192
5,22,1.0009616222138058,-0.0023339223481489077,0.0011836659462281158
5,23,1.0009725342849871,-0.003041234690611683,0.0023330918422416256
5,24,1.000985565371506,-0.0037910483270868563,0.003684471244322748
5,25,1.0010003329120243,-0.004561038391397669,0.005236788700200153
5,26,1.001015992282038,-0.005322139562983621,0.0069762350917179665
5,27,1.0010312262313097,-0.00604130360335216,0.008876099599706769
5,28,1.0010443328291752,-0.006685421690377077,0.010897974789968382
5,29,1.0010534424321986,-0.007225537706675815,0.012996162207390157
5,30,1.001056771564571,-0.007640325402677711,0.01512199003112046
5,31,1.0010528963845007,-0.00791809186201013,0.017229277167051686
5,32,1.0010409104356528,-0.008057021210659822,0.019277431149030546
5,33,1.0010205268566668,-0.008063939431697007,0.021234368762456286
5,34,1.0009920209620058,-0.007952127435870263,0.02307646761751555
5,35,1.0009561726836684,-0.007738835225190484,0.024788847967270804
5,36,1.0009140901477853,-0.007442951244984367,0.02636333846951414
5,37,1.000867122573276,-0.007083152221381736,0.0277978154308369