TITLE="CMs_NON_Orthogonal Re = 10000.0"
VARIABLES = X,Y,Rho,U,V
ZONE
I = 101	J = 101
F=POINT
1,1,1.000966629842974,2.1117811394729706e-6,-2.7098492491309023e-6
1,2,1.0009676818691031,5.741238294000786e-6,-1.7523519944307398e-5
1,3,1.0009676246663115,6.320926300549763e-6,-3.7306561924422403e-5
1,4,1.0009678276867549,7.370587309517081e-6,-6.042991620107648e-5
1,5,1.0009680202179865,8.576611193667372e-6,-8.822975797506741e-5
1,6,1.0009681956509757,9.75049481693046e-6,-0.00012182225604190023
1,7,1.0009683758756684,1.0710906224642219e-5,-0.00016214721290786256
1,8,1.0009685695414938,1.1220283527684345e-5,-0.0002103735453192312
1,9,1.0009687660849946,1.090846528868778e-5,-0.00026763308516518787
1,10,1.0009689461863134,9.23512846590864e-6,-0.00033516207180831365
1,11,1.0009690810542682,5.478574358043095e-6,-0.0004138580225271364
1,12,1.000969144469415,-1.266774341868368e-6,-0.000504315982418126
1,13,1.0009691246120058,-1.207781009176372e-5,-0.0006063570484873145
1,14,1.0009690395266586,-2.8173279955236987e-5,-0.0007190369989178385
1,15,1.0009689530498866,-5.0871183555667005e-5,-0.0008402138460475177
1,16,1.0009689910436166,-8.151432775168332e-5,-0.000966591531212586
1,17,1.0009693510125064,-0.0001213870505444951,-0.0010934269581341727
1,18,1.000970302596151,-0.00017161444461395899,-0.0012147064910010292
1,19,1.0009721733022214,-0.00023307513947294113,-0.001323064808147466
1,20,1.0009753215380988,-0.0003063130668922241,-0.0014101132159768657
1,21,1.0009800950813295,-0.00039147247672045794,-0.0014665605879182896
1,22,1.0009867800320797,-0.0004882384917823713,-0.0014826805438670969
1,23,1.0009955409975773,-0.0005958050633567888,-0.0014486325662855025
1,24,1.0010063605021002,-0.000712857976728209,-0.0013550908659067124
1,25,1.0010189821662663,-0.0008375945953193671,-0.0011937775970796605
1,26,1.001032868892569,-0.0009677729134476008,-0.0009582332992093376
1,27,1.001047184776631,-0.0011008053857400142,-0.0006444430431435771
1,28,1.0010608151961706,-0.0012338838331638737,-0.00025152226302038055
1,29,1.001072431251276,-0.001364134881169249,0.0002178979342063547
1,30,1.0010805973751844,-0.0014887863833216055,0.0007574283714779445
1,31,1.001083907862938,-0.0016053511824871568,0.0013570960330085648
1,32,1.0010811354229643,-0.0017118131642726302,0.0020037771282370317
1,33,1.0010713686558177,-0.001806773858147669,0.0026820796253265748
1,34,1.001054116295747,-0.0018894970765434974,0.003375366343466136
1,35,1.0010293592933135,-0.001959854264719479,0.004066886385640307
1,36,1.0009975448037989,-0.0020182025749049077,0.0047407072087975125
1,37,1.0009595270519482,-0.0020652424060986414,0.005382500626471138
1,38,1.0009164714086876,-0.0021018766836583464,0.005980007100977795
1,39,1.0008697404390419,-0.002129093109300765,0.006523311837721658
1,40,1.0008207816610046,-0.0021478708981594362,0.007004846866534912
1,41,1.0007710292248018,-0.002159118342922501,0.007419286252926666
1,42,1.0007218286959567,-0.0021636332427439875,0.007763285524392162
1,43,1.0006743844514268,-0.0021620866384887355,0.008035213974114833
1,44,1.000629730606556,-0.002155019663524941,0.008234833458785182
1,45,1.000588717447665,-0.00214285355622589,0.00836302900488765
1,46,1.0005520134940704,-0.0021259039534082067,0.008421547097892342
1,47,1.0005201121887848,-0.002104401113345067,0.008412797805616599
1,48,1.000493347616636,-0.002078509100609884,0.008339697289520203
1,49,1.000471905898219,-0.0020483473637436696,0.008205551288116548
1,50,1.0004558437281066,-0.002014008618031349,0.008014004587365639
1,51,1.0004450960451,-0.0019755783815432397,0.007768981343695521
1,52,1.0004394938652406,-0.001933148623405772,0.007474729817994998
1,53,1.0004387654625853,-0.0018868348291629056,0.007135775008704011
1,54,1.000442555226702,-0.0018367824389123432,0.006757049067313565
1,55,1.0004504187858816,-0.0017831830587043147,0.006343789988570091
1,56,1.000461847822486,-0.0017262676797905297,0.005901764126473293
1,57,1.0004762606835185,-0.0016663275707211398,0.00543700754695593
1,58,1.0004930395236045,-0.0016036817840070871,0.004956189288236492
1,59,1.0005115170927474,-0.0015387183032472807,0.00446602403747363
1,60,1.000531031879397,-0.0014718108481722159,0.003973927073248708
1,61,1.0005509089891491,-0.0014034177617969342,0.0034867994327106716
1,62,1.0005705352279595,-0.0013339003833401921,0.003012349759315626
1,63,1.0005893274542086,-0.001263753639128241,0.00255671019542436
1,64,1.0006068242133033,-0.0011932425036088549,0.00212721854403311
1,65,1.0006226318653235,-0.0011228797738946125,0.0017278995047603238
1,66,1.0006365197943716,-0.0010527804927574537,0.0013651084062046542
1,67,1.0006483389252308,-0.0009834607701092964,0.0010394061627970559
1,68,1.0006581155925338,-0.0009149072752266649,0.0007558391577193764
1,69,1.0006659337901191,-0.0008476430895735695,0.0005107467886671982
1,70,1.0006719963078834,-0.0007816406871498935,0.0003079917127025214
1,71,1.0006765375697988,-0.0007173243509841231,0.00013999597548851008
1,72,1.0006799049213493,-0.0006547635135097067,9.689998241109062e-6
1,73,1.0006823412151429,-0.0005945098924552858,-9.30283675045586e-5
1,74,1.0006840148298033,-0.0005366764472299669,-0.00016496760722640874
1,75,1.0006851754309851,-0.00048142264147410426,-0.00021749694292328914
1,76,1.0006862411377042,-0.0004289090097078725,-0.000247474168229183
1,77,1.0006873254288864,-0.0003799106324701259,-0.0002661295636279363
1,78,1.0006881594887402,-0.0003349261269047758,-0.0002672799973828037
1,79,1.000688514389903,-0.0002939949005820128,-0.000259998825618183
1,80,1.0006886259884393,-0.0002563568924211307,-0.00023759783106307581
1,81,1.0006889050468333,-0.00022132371813307565,-0.00021212610689320182
1,82,1.0006896532568939,-0.00018811038453728275,-0.00017933739065752673
1,83,1.0006908639830883,-0.00015637492151277587,-0.00015372332113772338
1,84,1.0006924349337516,-0.00012568600090022178,-0.0001311172693313827
1,85,1.0006942539012358,-9.646279601709589e-5,-0.00012669527167295686
1,86,1.0006960456463179,-6.889992042313478e-5,-0.00013484043206536144
1,87,1.000697840923359,-4.506094601463762e-5,-0.00016936857414775441
1,88,1.0006991031538044,-2.64141834708162e-5,-0.00021725707275974568
1,89,1.0006999529841034,-1.4826180088741317e-5,-0.0002838656546090993
1,90,1.0007003416172309,-1.4309114698994746e-5,-0.00034052196314608674
1,91,1.000700326767554,-2.0000199557253438e-5,-0.0003793437806293541
1,92,1.0007099507560946,-5.219981104519258e-5,-0.00034845915238481095
1,93,1.00071464124296,-0.00011380718869598923,-0.00017862229075076323
1,94,1.0007173128186866,-0.00019608085703851137,0.0002133576135428379
1,95,1.0007180590046696,-0.00028676080023898727,0.0008769634432268877
1,96,1.0007799575013805,-0.00026145290080501366,0.0016683530275641528
1,97,1.0009674627631158,-0.0010222102156988077,0.003379109013763622
1,98,1.0002778193291366,-0.001085413549046548,0.006589237340863114
1,99,1.0007461439289358,0.0005726216424772982,0.007673530958386398
1,100,1.001920981753338,-0.0076802687625964925,0.01641130205377695
1,101,0.9965033199077483,0.02652619315054439,0.013997896651788617
2,1,1.0009653572229353,1.7476814168824854e-5,-5.623681795815619e-6
2,2,1.0009663750822075,3.897092248137321e-5,-3.587209847431341e-5
2,3,1.0009658083787658,4.794150868979179e-5,-8.57264509199367e-5
2,4,1.0009655464255713,5.7479849407465706e-5,-0.00014792646618916764
2,5,1.0009651948543772,7.01006935070304e-5,-0.00022350516496635314
2,6,1.0009647018348689,8.531481612744207e-5,-0.0003156460051624535
2,7,1.000964099519542,0.00010341165596199471,-0.00042700208469276333
2,8,1.0009633599445422,0.00012489794731921445,-0.00056056250870087
2,9,1.000962455118535,0.00015017208190524125,-0.0007192069049431227
2,10,1.0009613575881384,0.0001793634520103882,-0.000905539729168709
2,11,1.0009600550163777,0.0002122197079258754,-0.0011210268576756814
2,12,1.0009585651054755,0.0002480857332496693,-0.001365577258672985
2,13,1.000956956073361,0.00028591240194189983,-0.0016367056871008769
2,14,1.000955363845438,0.0003242904387999043,-0.0019292833366787664
2,15,1.000954007640314,0.00036151501361869626,-0.0022350035376677542
2,16,1.000953194723722,0.00039569211537747147,-0.002542509539107185
2,17,1.0009533149979513,0.0004248730014270543,-0.0028373581388608533
2,18,1.0009548176854426,0.0004471822987348012,-0.0031026201677059667
2,19,1.0009581771915497,0.0004609238250283938,-0.0033192777467335862
2,20,1.000963845707594,0.00046466387438037906,-0.003467083377737681
2,21,1.000972202134865,0.00045731555775222664,-0.0035251427031126326
2,22,1.000983495095894,0.0004382487234079802,-0.0034728643348635895
2,23,1.0009977888329005,0.0004074490165589836,-0.0032907017068270986
2,24,1.0010149094049279,0.00036572101300226106,-0.002961297896213062
2,25,1.0010344007576752,0.0003149012412329899,-0.002470522389423437
2,26,1.0010554922843649,0.00025800915044859885,-0.0018088413606842338
2,27,1.0010770956606787,0.00019925977772667174,-0.0009724297347400297
2,28,1.0010978365769168,0.00014388307029872334,3.5734042668973654e-5
2,29,1.001116132848326,9.774202006338956e-5,0.0012053906173624346
2,30,1.001130309697593,6.677731501592032e-5,0.0025189321773212807
2,31,1.0011387515258119,5.635054756886551e-5,0.003952195425019534
2,32,1.0011400642353447,7.060374588575587e-5,0.005475762580877136
2,33,1.0011332296644815,0.00011198098704324208,0.007056924094095644
2,34,1.0011177127392472,0.00018101882381754925,0.00866171830556707
2,35,1.0010935122231817,0.0002764296162987083,0.01025701096965969
2,36,1.0010611379599657,0.0003954189457377676,0.011812096864761135
2,37,1.001021538230142,0.0005341380829782397,0.013299934326066454
2,38,1.0009759826966482,0.0006881669325099567,0.014697750463326926
2,39,1.0009259400752508,0.000852948204665667,0.015987287267162687
2,40,1.0008729527757356,0.0010241247743577456,0.01715459455176663
2,41,1.0008185408713515,0.001197766819069055,0.018189657152607463
2,42,1.0007641207642521,0.001370494020831352,0.01908582077602254
2,43,1.0007109618143444,0.0015395146579656167,0.019839212824813667
2,44,1.0006601529930668,0.0017026011344270905,0.020448156848113238
2,45,1.0006126018717105,0.0018580281907340998,0.020912634799149954
2,46,1.0005690306445238,0.0020044857506237696,0.021233877163224085
2,47,1.000529997606851,0.00214098793562759,0.02141395073521623
2,48,1.0004959029921028,0.0022667768853539055,0.02145559600581182
2,49,1.0004670181569943,0.002381241469902503,0.021361923407396875
2,50,1.0004434884411526,0.0024838357390650134,0.02113652521779243
2,51,1.000425363396771,0.002574023845021339,0.020783210293714587
2,52,1.0004125900318575,0.0026512205775289766,0.020306421909258448
2,53,1.0004050438212495,0.0027147709756353616,0.01971090295091635
2,54,1.0004025089565463,0.0027639158469933175,0.019002478875016916
2,55,1.0004047142912431,0.0027978155884863533,0.01818749276899965
2,56,1.0004112981199957,0.0028155439070354305,0.017274048639744605
2,57,1.0004218568023584,0.0028161679400794475,0.016270969211621078
2,58,1.0004358911611002,0.0027987709366685282,0.015189635646299618
2,59,1.000452879140044,0.002762596347685383,0.01404209585582595
2,60,1.0004721996772084,0.002707088738174323,0.012843694898810817
2,61,1.0004932438527667,0.0026320905676432155,0.011609817146079296
2,62,1.000515309823045,0.00253786759880213,0.010359609797044042
2,63,1.0005377671682076,0.00242531642163628,0.009110726779366075
2,64,1.0005599124729743,0.0022959217859002644,0.007884646722595198
2,65,1.0005811957977806,0.002151894437344721,0.006698762741134582
2,66,1.0006010226904452,0.0019960149429808357,0.005574083661597781
2,67,1.0006190382521065,0.0018316599367214892,0.004524128006660524
2,68,1.000634861263193,0.0016625028376571981,0.0035660030799283936
2,69,1.0006484138970941,0.0014923661068693994,0.002705856630201582
2,70,1.000659578826318,0.0013249442923012021,0.0019541930783562055
2,71,1.000668535920552,0.0011637666013313943,0.0013079901780618328
2,72,1.0006753945009537,0.0010116534364808612,0.000770334903339853
2,73,1.0006805731701824,0.0008704008849302159,0.0003297035902742954
2,74,1.0006842510137748,0.0007412548301625713,-1.6095316022289176e-5
2,75,1.000686737496937,0.0006257441897907576,-0.0002837066128979679
2,76,1.0006883015315282,0.0005243756192639388,-0.0004786937809113903
2,77,1.0006896029651202,0.00043493811258342755,-0.0006208564836582388
2,78,1.0006907408305785,0.0003539159423881956,-0.0007129552351334263
2,79,1.0006915091297246,0.00028032367454576795,-0.00076857719724351
2,80,1.0006914615154188,0.00021698220371131193,-0.0007859969073178947
2,81,1.0006908474970584,0.0001679897620867703,-0.0007841707295219159
2,82,1.0006899454518599,0.00013629206579253628,-0.0007726259199639582
2,83,1.0006891933690456,0.00012298918151749987,-0.000782602975530698
2,84,1.000688338405101,0.00012771144255930783,-0.0008295126130731811
2,85,1.0006873088051114,0.0001498132852904638,-0.0009459217697121153
2,86,1.0006856958900336,0.0001857951011176181,-0.001141756399370117
2,87,1.000683100816033,0.00022897126072984924,-0.0014374889335347463
2,88,1.0006799802535156,0.0002667121266846679,-0.0018204457075071514
2,89,1.0006758506679232,0.000282358476602135,-0.00227681138908912
2,90,1.0006727053276758,0.00026179422985404404,-0.0027594406815087246
2,91,1.0006736225429336,0.00017262142500681663,-0.0032042308865329514
2,92,1.000679609027665,-1.4616007171116117e-5,-0.0035136034752301123
2,93,1.0007072629483966,-0.00038983971982708905,-0.0035683071733419508
2,94,1.0007196977630308,-0.000875471743876106,-0.0031810657133474283
2,95,1.0007813202876785,-0.001237652629371281,-0.0024905303677351916
2,96,1.0008489342818332,-0.0023887824998897983,-0.0006831557600892925
2,97,1.0007501741517753,-0.0038793353558854724,0.001840294697441742
2,98,1.0015091425853486,-0.004636315493255061,0.0039209691952687645
2,99,1.0004085511097356,-0.010822518517540878,0.016191219848541837
2,100,0.9996158798055647,-0.0121968549631394,0.021808560974209683
2,101,1.0037686157639254,0.05153129782776121,0.005628701217687557
3,1,1.0009653830685337,3.277058484719042e-5,-5.596131344349091e-6
3,2,1.0009669926272264,8.473534275788582e-5,-4.005498881277634e-5
3,3,1.0009665304371276,0.00011525607359141471,-0.00010623494364715126
3,4,1.0009659789684802,0.00014099365311902328,-0.00019761941545360482
3,5,1.0009655327711287,0.0001710010724746426,-0.0003098957532689179
3,6,1.0009650271924913,0.00020649439024330972,-0.0004452897225271337
3,7,1.0009643840469575,0.00024706469001647806,-0.0006076909326110841
3,8,1.000963598530383,0.00029253564871513767,-0.0008004364543231218
3,9,1.000962637523277,0.0003420178183788106,-0.0010259851179892714
3,10,1.0009614839181051,0.0003933595127255457,-0.0012854677027397165
3,11,1.000960144580386,0.00044296927505146623,-0.0015774337846740257
3,12,1.0009586638099934,0.00048588019965950394,-0.0018972726751692597
3,13,1.0009571408006879,0.0005160216896154757,-0.002236337499062884
3,14,1.0009557413962624,0.000526591471957955,-0.0025820610182990806
3,15,1.0009547017531688,0.0005105285951221293,-0.002917982679372678
3,16,1.0009543215970522,0.00046106045281700314,-0.003224724702528568
3,17,1.000954945927508,0.00037223546466300225,-0.0034807667184813245
3,18,1.0009569387104356,0.00023933867925629148,-0.0036638307913772475
3,19,1.000960650611199,5.914440753755139e-5,-0.0037517134022439203
3,20,1.0009663880859159,-0.00016995579583431943,-0.003723348703448047
3,21,1.0009743835366651,-0.00044786428962591236,-0.003559190460027706
3,22,1.0009847690511617,-0.0007726339729587739,-0.003241864282764233
3,23,1.0009975468060517,-0.0011402226327248612,-0.0027564477648159983
3,24,1.0010125535673482,-0.0015441746356440165,-0.0020913385911073253
3,25,1.0010294155130273,-0.001975355761070154,-0.0012390240995325253
3,26,1.0010475032336443,-0.0024219148442680585,-0.00019740606957937065
3,27,1.0010659012845733,-0.002869623293982476,0.0010292447118365185
3,28,1.0010834087856,-0.003302652718502224,0.0024293008685865097
3,29,1.0010985874607214,-0.0037047600568344153,0.003983735596700732
3,30,1.0011098654466595,-0.004060741630878599,0.005666580049502176
3,31,1.0011156963868038,-0.004357912682248223,0.007446568862413262
3,32,1.001114740517575,-0.00458730128540177,0.009289112630097794
3,33,1.0011060356116908,-0.004744304626423131,0.01115886894740994
3,34,1.00108910955085,-0.0048286995365906926,0.01302184126111445
3,35,1.0010640268512117,-0.004844083474095494,0.014847335510126642
3,36,1.0010313524017957,-0.004796935576514292,0.016608947874227422
3,37,1.0009920684170992,-0.004695535618300825,0.018285248922596337
3,38,1.0009474472666287,-0.00454893519690201,0.019859591733459574
3,39,1.000898930378035,-0.004366115813545389,0.02131988585047553
3,40,1.0008480032813651,-0.004155382338902604,0.02265779399856266
3,41,1.0007961095096474,-0.003923996102130651,0.02386818584582553
3,42,1.0007445728275652,-0.0036780046219862094,0.024948226474198996
3,43,1.0006945642013707,-0.0034222273203118924,0.025896880486219756
3,44,1.000647069759097,-0.0031603395344701425,0.02671413805109866
3,45,1.0006028965874583,-0.0028950242674824953,0.02740070197990438
3,46,1.0005626674248864,-0.0026281481347872975,0.027957414048080144
3,47,1.00052684493228,-0.0023609546733896402,0.0283851242252949
3,48,1.000495736205554,-0.0020942444801906354,0.028684304834408054
3,49,1.0004695212292485,-0.001828556139177415,0.028855055371341767
3,50,1.000448258324096,-0.0015643197229135593,0.028896890117143085
3,51,1.0004319098969419,-0.0013020129601165984,0.02880883015212575
3,52,1.0004203468094615,-0.001042282595664825,0.028589386073957116
3,53,1.000413369306292,-0.000786075869067369,0.028236696073937518
3,54,1.0004107123349721,-0.0005347246231809972,0.027748778635941024
3,55,1.000412061248126,-0.0002900445378820216,0.027123665877351797
3,56,1.000417061552685,-5.436193344996634e-5,0.026360057433118377
3,57,1.0004253280689333,0.00016944486861144198,0.02545734442845489
3,58,1.000436461844718,0.00037801530571324784,0.024416837643949193
3,59,1.0004500487104615,0.0005675637935967123,0.02324144763730191
3,60,1.000465683992917,0.0007340914446143744,0.0219376661345369
3,61,1.0004829538490594,0.0008735725412126253,0.020514443318287626
3,62,1.0005014673773878,0.0009823211338703675,0.018986065851622626
3,63,1.0005208162963939,0.00105728135222763,0.017369491452373924
3,64,1.0005406159691572,0.0010964777455574365,0.015688242961187118
3,65,1.0005604486464794,0.0010992769397431506,0.013967272008601421
3,66,1.0005799216364062,0.001066747974564314,0.012238081453655271
3,67,1.0005986103435716,0.0010017077918452518,0.010530324670890982
3,68,1.0006161313041206,0.000908758772685685,0.0088786970618363
3,69,1.0006321124288646,0.0007939253302112104,0.007311024987748647
3,70,1.0006462729431063,0.0006643394239878031,0.005857787108870452
3,71,1.000658402755715,0.0005277095597294359,0.0045373804301972985
3,72,1.0006683876922375,0.00039161243120514505,0.003369256468425035
3,73,1.0006762661798856,0.00026240614310439777,0.002357086601900342
3,74,1.0006822231566521,0.00014505369454733528,0.0015058804249206375
3,75,1.0006864695915714,4.4220864825839346e-5,0.0008049624005756175
3,76,1.0006891375049942,-3.624104200956901e-5,0.0002479621980150093
3,77,1.0006906534108355,-9.714561143085147e-5,-0.00018726758289678872
3,78,1.00069162467671,-0.000145035222629181,-0.0005150967406537698
3,79,1.0006923139375457,-0.0001852640044522276,-0.0007575624176702012
3,80,1.0006922764177373,-0.00021382214824399405,-0.0009211545656171732
3,81,1.0006910931117656,-0.00021784835726908628,-0.0010263503625611075
3,82,1.0006889015764755,-0.00018298603514656675,-0.0010943085129837336
3,83,1.0006862665651914,-0.00010025300311972544,-0.0011716818042299556
3,84,1.0006836112984936,3.1681330052281096e-5,-0.0013014870586098878
3,85,1.0006809671993,0.0002071497229146693,-0.0015353459429311013
3,86,1.0006779904289091,0.00041192334763660653,-0.0019017333652736252
3,87,1.0006745241759616,0.000618038099999527,-0.0024175362748270995
3,88,1.0006694855422222,0.0007908726029934114,-0.003057388344001908
3,89,1.000664876928591,0.0008902779744194709,-0.003783866393677984
3,90,1.000660535937035,0.0008680034779624598,-0.004501434137605147
3,91,1.000658767599202,0.0006934581070357116,-0.005132101814452106
3,92,1.0006640367506847,0.00027300480002872705,-0.005536844790013389
3,93,1.0006592291328387,-0.0003791779278950143,-0.005667685126788702
3,94,1.0007182652144857,-0.0011851032221805958,-0.005649803436096605
3,95,1.0007273747811916,-0.0025755161164644227,-0.004629321967420664
3,96,1.000597754535991,-0.0037709518331571173,-0.0035198196114393588
3,97,1.0010533456695925,-0.0054765672433914276,-0.003020665855109432
3,98,1.000678179144328,-0.01251332556139537,0.0035683611534766554
3,99,0.9995059474985984,-0.01696168457315095,0.005945546711043623
3,100,1.0005781950401853,-0.002700344749124734,-0.0006100692020250155
3,101,1.0004982601523462,0.05520255798407622,-0.0019202435942807501
4,1,1.0009650598147946,5.262890944632993e-5,-6.8841525157573464e-6
4,2,1.000966888571738,0.00014141141660115782,-4.751700107414071e-5
4,3,1.000966660401738,0.0002055938226545906,-0.00012653657374638337
4,4,1.0009661463657868,0.00025866276083762326,-0.00023938113950831865
4,5,1.000965549861551,0.00031317347034140664,-0.0003799113542891251
4,6,1.0009650650467468,0.00037633030382810316,-0.0005455095060988735
4,7,1.0009645333443098,0.0004492633422692005,-0.0007382721028729974
4,8,1.0009638685655395,0.0005308867773265491,-0.0009605817472864776
4,9,1.0009630794302682,0.0006192276298029621,-0.0012119578759711104
4,10,1.0009621687162247,0.0007104685832536484,-0.0014890825379136904
4,11,1.0009611642343366,0.0007986606256481092,-0.001784675786661899
4,12,1.000960129031357,0.000876125411288115,-0.00208732190714838
4,13,1.000959167719799,0.0009342114891165212,-0.0023811467484363574
4,14,1.0009584327735597,0.0009642070547444918,-0.0026469066201875355
4,15,1.0009581178261278,0.0009582221249301821,-0.0028629492984873126
4,16,1.0009584448134468,0.000909916136466608,-0.003007176375218689
4,17,1.0009596438732815,0.0008149209713843138,-0.003058237137845367
4,18,1.0009619351936012,0.000670872357793601,-0.0029969751899570165
4,19,1.0009655134719935,0.0004771158810898201,-0.0028065843039543808
4,20,1.000970542798934,0.0002343061072391508,-0.002472795932939415
4,21,1.0009771559887568,-5.5825585120457e-5,-0.001983085388352726
4,22,1.000985453511767,-0.0003903116464449938,-0.0013265724083822588
4,23,1.0009954839367885,-0.0007643442091769403,-0.0004938249095229094
4,24,1.001007197262477,-0.0011703859869486224,0.0005219792135269047
4,25,1.0010203710761938,-0.0015973472386495403,0.0017237799918816135
4,26,1.001034525845962,-0.0020302148392797115,0.0031084196319727366
4,27,1.0010488569198475,-0.002450438186101216,0.004665205955560242
4,28,1.0010622097945276,-0.0028371901341263336,0.006374670505660203
4,29,1.0010731379557791,-0.003169407133881821,0.00820918420536194
4,30,1.001080041059997,-0.003428220663933997,0.010134343336840074
4,31,1.0010813761930186,-0.003599222068279307,0.012112039561354202
4,32,1.0010758678373115,-0.0036740052254139494,0.014103333404531652
4,33,1.0010626914574714,-0.0036506953035037454,0.01607175312130806
4,34,1.001041557634291,-0.003533461110694934,0.017985197659136556
4,35,1.001012731779666,-0.003331289091144231,0.01981760218999966
4,36,1.000976951494849,-0.003056377682709704,0.021548988838592593
4,37,1.000935330332189,-0.0027225199732311975,0.02316557135258912
4,38,1.000889206383333,-0.002343704838589796,0.024658643807711485
4,39,1.0008400381238014,-0.0019330764706841797,0.026024055187684594
4,40,1.000789272949981,-0.001502256489679719,0.027260808280144124
4,41,1.0007382930191266,-0.0010610029259315928,0.028370575505954808
4,42,1.0006883319706505,-0.0006171171361487397,0.02935644680155001
4,43,1.000640475056513,-0.00017653770603281811,0.03022272640996551
4,44,1.0005956139601022,0.0002564637288509701,0.030973924403083136
4,45,1.0005544822518382,0.0006790227616501329,0.03161483323282555
4,46,1.000517628382483,0.0010894126603750718,0.032149708207243444
4,47,1.0004854666250926,0.0014867728256272624,0.03258254328071318
4,48,1.000458253316015,0.0018708645594831528,0.0329163544756089
4,49,1.0004361406559399,0.0022418410733549467,0.03315357452239612
4,50,1.0004191491777883,0.002600050342483586,0.03329537161723895
4,51,1.0004072187268085,0.0029458450797104335,0.033342110434357065
4,52,1.0004001762210633,0.0032794207612308105,0.033292675538079596
4,53,1.0003977827579593,0.0036006460210379425,0.03314498265487005
4,54,1.000399699757976,0.003908920938521846,0.03289532806996495
4,55,1.0004055339828246,0.004203015360167979,0.032538975646943996
4,56,1.0004148079351092,0.004480951534380641,0.03206962802617223
4,57,1.0004270060471543,0.0047398649341579375,0.03148015517314415
4,58,1.0004415566638107,0.004975952959049341,0.030762378759120412
4,59,1.0004578817791996,0.0051844163918769665,0.029908015083339776
4,60,1.0004753961631885,0.005359562517805311,0.028909046867929375
4,61,1.0004935572405997,0.0054949270546308625,0.0277588530156405
4,62,1.0005118796451495,0.0055836425743616865,0.026453432535574695
4,63,1.0005299701670365,0.005618833269129416,0.02499238880024664
4,64,1.0005475443232335,0.00559429389740766,0.023381087254132595
4,65,1.000564422130339,0.005505129618030536,0.0216306423540912
4,66,1.0005805321401262,0.005348601696137111,0.01976076464401288
4,67,1.0005958496898866,0.00512474480213752,0.01779742460598973
4,68,1.0006103961914978,0.004836983035754825,0.01577598460218995
4,69,1.0006241429394411,0.0044922747272221454,0.013735282340067646
4,70,1.000637048254839,0.0041010421817291995,0.011720965068885305
4,71,1.0006489596742187,0.0036765353669200858,0.00977586622874321
4,72,1.000659715814896,0.003233966773726757,0.007944476297881647
4,73,1.00066908798559,0.002789009167704597,0.006260791218504345
4,74,1.0006769821661927,0.0023563903390444226,0.004754890217969067
4,75,1.000683341884766,0.001949328128408875,0.003441166288034154
4,76,1.0006881436700392,0.001579669530743276,0.002329616680214102
4,77,1.0006913203058083,0.0012549826493573027,0.0014140922474756214
4,78,1.000693273691899,0.0009738054678825565,0.0006824849679365334
4,79,1.0006946503017358,0.0007280828596487531,0.00010972324244653619
4,80,1.0006956950005383,0.0005168590551235242,-0.00032153524891868424
4,81,1.0006958270887603,0.00035673890597581607,-0.0006295560967298765
4,82,1.0006945849460311,0.00027740803409637084,-0.0008345161488085998
4,83,1.0006923375809758,0.000304825314623141,-0.0009823045317227746
4,84,1.0006899528718098,0.0004466619947280017,-0.0011334721990678871
4,85,1.00068821404953,0.0006892331757301292,-0.0013575061441422702
4,86,1.000687225351102,0.0009929455806435656,-0.001698754039533386
4,87,1.0006858023238894,0.0012965717929253938,-0.002167955320142931
4,88,1.0006845653009795,0.001526946203880003,-0.0027280565379370733
4,89,1.0006818378102886,0.0016056020287386107,-0.0032924200776238157
4,90,1.0006811040343278,0.0014736343212065134,-0.003772416556398095
4,91,1.0006804957851403,0.001052850477269135,-0.004019832989229801
4,92,1.0006729188563794,0.00039990139756321155,-0.004031778733203512
4,93,1.0007129959691803,-0.00045888215984964966,-0.003918041171721444
4,94,1.0006896446669924,-0.001957278485616218,-0.003099400505300951
4,95,1.000651522211805,-0.0032706670318868552,-0.002620182714525007
4,96,1.0009778292371896,-0.004645261283641104,-0.0022061940073323763
4,97,1.0005777867223127,-0.009989047938503337,0.0024339963374714643
4,98,1.000043035468224,-0.01443314918160502,0.002974332652945523
4,99,1.0008856679432152,-0.010693133055876398,-0.002076028383956239
4,100,1.0012762958317554,-0.0014874423510425458,-0.0024551306017696647
4,101,0.9997723537987537,0.05210677660143701,-0.0005483533936137149
5,1,1.000964856965175,7.369931760105766e-5,-7.787810482437599e-6
5,2,1.0009668676387837,0.0002051539739739351,-5.405558888826994e-5
5,3,1.0009666190442774,0.00030741858575881407,-0.0001434790969241271
5,4,1.000966253636477,0.0003921919614606876,-0.00026908203819643286
5,5,1.000965714858657,0.00047220353393157206,-0.00042442956305155654
5,6,1.0009651606894023,0.0005579149060435742,-0.0006045170450868575
5,7,1.0009646874220917,0.000653409136118163,-0.0008063509175360539
5,8,1.0009641458248222,0.0007556031830421886,-0.0010288051134473395
5,9,1.0009634681992106,0.0008579232694540043,-0.0012676902588681174
5,10,1.0009626761251336,0.0009515285597013901,-0.0015143558409629377
5,11,1.0009617843665393,0.0010249993691136736,-0.0017555415028743416
5,12,1.0009608273622863,0.0010651226476072403,-0.0019743983487677213
5,13,1.0009598712464753,0.0010584284898496434,-0.002150945317706004
5,14,1.000959017946421,0.0009927798964626646,-0.002264240290747838
5,15,1.0009584045434587,0.0008586235192793766,-0.0022937599238578342
5,16,1.0009581969604355,0.000649628308650086,-0.002221529523397597
5,17,1.0009585798898846,0.0003626141644266529,-0.0020324403868001387
5,18,1.0009597554205818,-3.122289280889135e-6,-0.0017145156526090204
5,19,1.0009619482293004,-0.00044673576445195684,-0.001257269452134584
5,20,1.0009654222034898,-0.0009664941726965547,-0.0006506534900560896
5,21,1.000970488570381,-0.0015597123513495723,0.00011659464382486812
5,22,1.0009774877820925,-0.002221758681078992,0.001056491789179728
5,23,1.0009867212210974,-0.0029443670169229078,0.002180794966295106
5,24,1.0009983326515297,-0.0037138444088781813,0.0034976142611953228
5,25,1.0010121647131867,-0.004509930517249252,0.005008345643530212
5,26,1.0010276221896766,-0.005305915955801531,0.006703919194493387
5,27,1.0010436044258253,-0.0060703423962619575,0.00856350783239418
5,28,1.0010585343034668,-0.006770138769432086,0.010554329419726938
5,29,1.0010705313749433,-0.0073745803762393985,0.012634850355127408
5,30,1.0010776563974275,-0.00785907449712707,0.014758463363253406
5,31,1.0010782106212688,-0.008207855940516725,0.01687890299579077
5,32,1.001070947229722,-0.008415030013814042,0.018953799610620242
5,33,1.0010552319108912,-0.008483992943852194,0.020948253575737923
5,34,1.0010310364568638,-0.008425624191474837,0.022835464371367
5,35,1.0009989108125987,-0.008255891979081666,0.024597504076806442
5,36,1.000959819260534,-0.007993399877962723,0.0262236061469293
5,37,1.0009150480464968,-0.00765729782011838,0.027709616611493664