TITLE="CMs_NON_Orthogonal Re = 10000.0"
VARIABLES = X,Y,Rho,U,V
ZONE
I = 101	J = 101
F=POINT
1,1,1.000958034106017,1.9760835050842063e-6,-2.5345101955803716e-6
1,2,1.0009590037392635,5.240133551638335e-6,-1.6287923036870304e-5
1,3,1.0009589623946942,5.67109235549528e-6,-3.419638063870686e-5
1,4,1.0009592464435442,6.720773775917849e-6,-5.524702497772492e-5
1,5,1.000959534668159,7.888412102716157e-6,-8.084586050266243e-5
1,6,1.0009598233521517,9.001277527025001e-6,-0.00011195109202766792
1,7,1.0009601383890825,9.917853363371083e-6,-0.00014940516997653894
1,8,1.0009604905877643,1.0421480314792199e-5,-0.0001943172536859898
1,9,1.0009608694121024,1.0163876998004082e-5,-0.00024774617008592063
1,10,1.000961256306285,8.640305364432769e-6,-0.00031084572058446804
1,11,1.0009616236456758,5.177584433700626e-6,-0.00038443916628237327
1,12,1.0009619430987278,-1.0771212734252415e-6,-0.00046906314865571787
1,13,1.000962194829574,-1.1150726136478515e-5,-0.0005644750816041771
1,14,1.000962382193095,-2.6216099447869516e-5,-0.0006696377852699182
1,15,1.000962548480678,-4.7545407196315586e-5,-0.0007822624526398654
1,16,1.0009627951040172,-7.642700824733994e-5,-0.0008988563600130863
1,17,1.0009632934911605,-0.00011406967910625429,-0.0010144591311410736
1,18,1.0009642862348165,-0.00016149073661488633,-0.0011228994048742577
1,19,1.0009660701019556,-0.00021942663240531211,-0.001216819257615904
1,20,1.0009689631096235,-0.00028825792303827997,-0.0012881263313386658
1,21,1.0009732568547458,-0.00036797360901250103,-0.0013281983809951797
1,22,1.000979163861516,-0.0004581506806816963,-0.001328374881578316
1,23,1.0009867648714628,-0.0005579594961066029,-0.001280203431338735
1,24,1.0009959650566689,-0.000666170485201145,-0.0011759183715135707
1,25,1.0010064603832318,-0.0007811765011933381,-0.0010087614519666496
1,26,1.0010177183695679,-0.0009010228390812628,-0.000773539839876482
1,27,1.001028974193535,-0.0010234671358645296,-0.0004670671708725591
1,28,1.0010392514603268,-0.00114606502888715,-8.873700053282261e-5
1,29,1.0010474133543,-0.001266289743708708,0.00035913509008164896
1,30,1.0010522461163065,-0.0013816693378530126,0.0008710324252451146
1,31,1.0010525655234856,-0.0014899452631607609,0.001438321447114863
1,32,1.0010473353219345,-0.0015892363394041237,0.0020495355874718866
1,33,1.0010357805162324,-0.0016781762860613755,0.002691076145548557
1,34,1.0010174777423115,-0.0017559705307576986,0.003348047518299167
1,35,1.000992405477432,-0.0018223692909697799,0.004005243519902765
1,36,1.0009609468784728,-0.0018775763763825368,0.004647981580655612
1,37,1.0009238468999375,-0.0019221325192327354,0.005262846821066563
1,38,1.0008821356896909,-0.001956792862511105,0.005838152819193757
1,39,1.000837033160327,-0.001982420261080136,0.006364250262099949
1,40,1.0007898516746403,-0.0019998970627744454,0.006833576805931733
1,41,1.0007419079333153,-0.0020100633511617046,0.007240612447670062
1,42,1.000694453138036,-0.002013675023644675,0.0075816744301120545
1,43,1.000648621947557,-0.0020113835969048292,0.0078547027295646
1,44,1.0006054020785842,-0.0020037283618195923,0.008058978474271734
1,45,1.0005656179492324,-0.0019911418198317776,0.008194888185146054
1,46,1.0005299290501677,-0.0019739596931717027,0.008263681553161597
1,47,1.0004988331513092,-0.0019524376138794174,0.008267289556124963
1,48,1.000472678543274,-0.0019267672824540248,0.0082081712203606
1,49,1.000451672882404,-0.0018970958153333678,0.008089202425563477
1,50,1.0004358991918685,-0.0018635417801685344,0.007913620934007931
1,51,1.000425322138939,-0.0018262135197502447,0.0076849685075403755
1,52,1.000419803992384,-0.001785221868654119,0.0074071275408161405
1,53,1.000419105225512,-0.0017406966429839995,0.0070842782010327975
1,54,1.0004229015686374,-0.0016927929820479619,0.006721019647082003
1,55,1.0004307790060785,-0.0016417071604407734,0.006322281999235119
1,56,1.000442256333648,-0.0015876708130198327,0.005893537556870082
1,57,1.0004567759951366,-0.00153097073138609,0.005440571504069334
1,58,1.0004737382773716,-0.0014719192990453173,0.004969824146517486
1,59,1.0004924890022295,-0.0014108919412823095,0.004487860016386182
1,60,1.0005123712221213,-0.0013482506731216737,0.0040019716684160855
1,61,1.0005327084195579,-0.0012844330606524284,0.003519068557526008
1,62,1.0005528762373788,-0.0012197848666951464,0.0030468754788213763
1,63,1.0005722753919655,-0.0011547693533277706,0.002591739053158209
1,64,1.0005904206347227,-0.0010896306748633627,0.002161144300544427
1,65,1.0006068938085877,-0.0010248353049591718,0.001759540341416583
1,66,1.0006214372071935,-0.0009604684009036364,0.0013934910024269486
1,67,1.0006338800502081,-0.0008969848199663624,0.0010641279883866397
1,68,1.0006442302497436,-0.0008343306460542134,0.0007766511142856633
1,69,1.0006525634612595,-0.0007729590171364102,0.0005280031221991727
1,70,1.0006590808561908,-0.0007127948129171274,0.00032203078046856077
1,71,1.0006640268647025,-0.0006541963058678137,0.0001516811625964838
1,72,1.0006677622483344,-0.0005971988345334996,1.9653532664654568e-5
1,73,1.0006705443849087,-0.000542302619406765,-8.372279812020467e-5
1,74,1.0006725639971965,-0.0004895835786272279,-0.0001556833117767347
1,75,1.0006741036374087,-0.0004391879063232171,-0.00020726624302905855
1,76,1.000675587086631,-0.00039131730951083604,-0.0002357831028562245
1,77,1.0006771007768873,-0.0003467558824284916,-0.00025195336630832836
1,78,1.0006783664082477,-0.00030595563923853066,-0.0002499829847925685
1,79,1.0006791836105935,-0.0002688824758736559,-0.00023857781726802882
1,80,1.0006798055898076,-0.00023476003558375015,-0.00021171759969928995
1,81,1.0006806113578735,-0.00020293627242665542,-0.0001811547669760343
1,82,1.0006818401909012,-0.00017268136718834006,-0.00014318471313637884
1,83,1.000683436753438,-0.00014366582342898625,-0.00011184276765468514
1,84,1.000685275618993,-0.00011545463567131953,-8.354453512448189e-5
1,85,1.0006872374764353,-8.840595203984411e-5,-7.314913271320432e-5
1,86,1.0006890766161767,-6.257525064723766e-5,-7.59157817756167e-5
1,87,1.0006908530359644,-3.97663888742972e-5,-0.00010594902124552425
1,88,1.0006920567939899,-2.1174790753789052e-5,-0.00015223513360608192
1,89,1.0006927982947806,-8.6756378752051e-6,-0.00022161954333642188
1,90,1.000692835810886,-6.4079818651100195e-6,-0.00028786533390705906
1,91,1.0006921671644877,-1.0066435123529613e-5,-0.00034382540880431047
1,92,1.0007007583938374,-4.0961449557835866e-5,-0.0003370255428115951
1,93,1.0007040708671924,-0.00010204862360741107,-0.00019508734933900102
1,94,1.0007059487444128,-0.00018621796475089988,0.00016972136231515171
1,95,1.0007059674341827,-0.00027987480546833184,0.0008128163495046323
1,96,1.0007685932480062,-0.0002579269688040223,0.0015927154144973587
1,97,1.0009590558444028,-0.001026929666109133,0.0033080463772179516
1,98,1.000268858393466,-0.0010945138796380938,0.006540669425542674
1,99,1.000737750280672,0.0005599939052828114,0.007661079072384073
1,100,1.0019143709701348,-0.0076810187187512724,0.016420055604425766
1,101,0.9964917584914575,0.026529707984704394,0.014000979827839391
2,1,1.000956882798711,1.6316442917962345e-5,-5.21585911809118e-6
2,2,1.0009578205282597,3.5585724560233364e-5,-3.296613229930902e-5
2,3,1.0009573035500252,4.329301645515343e-5,-7.784054828695279e-5
2,4,1.0009571714442778,5.259228465590757e-5,-0.00013413821591748475
2,5,1.0009569485111367,6.479822790939687e-5,-0.00020356810006906816
2,6,1.0009565975034684,7.922852359183977e-5,-0.00028897792859164536
2,7,1.000956167846208,9.632327465555926e-5,-0.0003926507513005979
2,8,1.000955634500664,0.00011661716923754414,-0.0005173930661332553
2,9,1.0009549683024175,0.00014045298008736768,-0.0006659374140000086
2,10,1.000954142189572,0.00016792949181407258,-0.0008407375249942367
2,11,1.000953144485719,0.00019879459706519993,-0.0010431537950503242
2,12,1.0009519906150226,0.00023236704877757183,-0.001273052192645664
2,13,1.0009507415753967,0.00026750102449533866,-0.0015278979025258107
2,14,1.000949521289429,0.0003026189271331797,-0.001802411946984167
2,15,1.0009485332629537,0.00033581498897762053,-0.0020879650577276757
2,16,1.0009480658080743,0.0003650333821896761,-0.0023727256181932978
2,17,1.0009484850141706,0.0003882977904437654,-0.002641751716976662
2,18,1.0009502063081033,0.00040393071401303597,-0.00287784432033082
2,19,1.0009536524589406,0.0004107047691831841,-0.0030622496504734225
2,20,1.000959199049509,0.00040789114638345393,-0.0031757919392249308
2,21,1.000967122641555,0.00039522310468571766,-0.003199570855727579
2,22,1.000977553497363,0.0003728280826585172,-0.0031158129241788
2,23,1.0009904424068823,0.00034120548273603357,-0.0029082867070202765
2,24,1.0010055342915523,0.0003013004196311803,-0.0025629832548684545
2,25,1.0010223505681395,0.0002546739636722522,-0.002068651199092372
2,26,1.0010401734651053,0.00020369965833533083,-0.0014177548178615279
2,27,1.0010580458284366,0.00015168488434015386,-0.0006073196424163601
2,28,1.0010747917055205,0.0001028279215452605,0.00036005815027727333
2,29,1.0010890724591683,6.197706347804252e-5,0.0014756651297952851
2,30,1.0010994724712219,3.4203456569879984e-5,0.0027243970740213506
2,31,1.001104618574709,2.424654031635014e-5,0.004085260300311215
2,32,1.0011033124895155,3.5935565365974056e-5,0.005532328745368102
2,33,1.0010946636212046,7.172256922871774e-5,0.00703636827857036
2,34,1.001078186226829,0.0001324340402397647,0.008566582570198569
2,35,1.0010538528335309,0.00021727921734034862,0.01009248723148692
2,36,1.0010220845242683,0.00032407698659678454,0.011585399025431637
2,37,1.0009836977461033,0.00044962203713634673,0.013019649938743702
2,38,1.0009398084557186,0.0005900991054230848,0.014373236738994752
2,39,1.0008917288555825,0.000741472016808792,0.015628158036430865
2,40,1.0008408566584455,0.0008997991247582246,0.016770314980915472
2,41,1.0007885882666339,0.0010614573119030154,0.017789251519613792
2,42,1.0007362418530221,0.0012232739795491998,0.01867767861622843
2,43,1.0006850143779173,0.0013825829301797466,0.019430980878593275
2,44,1.0006359462830487,0.001537219363127767,0.020046691250194176
2,45,1.0005899168404386,0.0016854767603577759,0.02052400181190958
2,46,1.0005476364001038,0.0018260362740456651,0.02086337620979017
2,47,1.0005096637850126,0.0019578886745052503,0.02106615816673839
2,48,1.0004764090746827,0.002080248170139385,0.021134402986701488
2,49,1.000448159685649,0.002192477237462305,0.021070580912477693
2,50,1.0004250816453517,0.0022940091370419065,0.020877663651456147
2,51,1.0004072477213424,0.0023842932697203346,0.020558866155026393
2,52,1.0003946304436062,0.00246273537738651,0.020118024012566554
2,53,1.0003871314589303,0.0025286730410525884,0.019559279085889725
2,54,1.0003845626349532,0.0025813377911067287,0.01888780730477432
2,55,1.0003866800469223,0.002619871103610401,0.0181093036600975
2,56,1.000393150495762,0.0026433131236193045,0.01723115220736599
2,57,1.0004035970533656,0.0026506726106681005,0.01626148425739213
2,58,1.0004175480999862,0.002640945710022454,0.015210917752753308
2,59,1.0004345049588759,0.0026132505321528362,0.014090841777992597
2,60,1.000453869650216,0.0025668697000823877,0.012915899760082474
2,61,1.0004750484707499,0.002501443113294261,0.01170100881240458
2,62,1.0004973528907954,0.0024170054321478703,0.010464850647851923
2,63,1.0005201538128192,0.002314199375552551,0.009225011869451388
2,64,1.0005427465826795,0.002194256638816863,0.008002922759158839
2,65,1.0005645655674469,0.0020591502844155853,0.006816471388592731
2,66,1.0005850004234549,0.0019114672333127157,0.005687108571673132
2,67,1.0006036675011396,0.0017544469660057895,0.004629399216881433
2,68,1.0006201626614732,0.0015917013102017534,0.003661246857801514
2,69,1.0006343775265953,0.0014270662123836006,0.002790152191198986
2,70,1.0006461784152574,0.001264325822106066,0.0020274319178811783
2,71,1.0006557264856302,0.0011071428433616476,0.0013713305320745617
2,72,1.0006631318958494,0.0009584884072305036,0.0008253995639938146
2,73,1.0006688122367484,0.0008203219827105657,0.0003789948474848174
2,74,1.0006729602542097,0.0006940730666232152,2.9858998922697226e-5
2,75,1.0006759038636435,0.0005813527376626981,-0.00023826378922514252
2,76,1.0006779530682155,0.0004825328802780408,-0.00043141517879110463
2,77,1.0006797694389538,0.0003952406935416943,-0.0005689927263081912
2,78,1.0006814253556569,0.00031610144109898064,-0.00065405387839357
2,79,1.0006826945206158,0.000244497559818274,-0.0006999647405516808
2,80,1.0006831614575185,0.00018344305075241858,-0.0007060873359721064
2,81,1.0006830881726574,0.000136888433165299,-0.0006918174489113474
2,82,1.0006827252679518,0.00010753442651786731,-0.0006676898320004448
2,83,1.0006824360406568,9.643390763860866e-5,-0.0006646994390022644
2,84,1.0006819083216938,0.00010333515644543205,-0.0006986986430671817
2,85,1.0006810187651964,0.0001278436192717139,-0.0008019515681083799
2,86,1.0006793506003215,0.00016722725277043475,-0.0009857083044373714
2,87,1.0006765257155394,0.0002161942992048965,-0.0012726051076403385
2,88,1.00067296870063,0.00026358080069212493,-0.001654965847358596
2,89,1.0006681170551246,0.0002933370930002602,-0.0021244159251114416
2,90,1.0006638792359066,0.00028976095099681224,-0.002638750701874273
2,91,1.0006630988138587,0.00021682032464636307,-0.003133259169936313
2,92,1.000667177587144,4.0374463078677926e-5,-0.0035053574997983166
2,93,1.0006931086075823,-0.00033392555283638474,-0.003623777319765191
2,94,1.0007048636716283,-0.0008284548615825547,-0.0032910098444483837
2,95,1.0007675316479268,-0.001208756156087395,-0.002637490584267477
2,96,1.0008372116832214,-0.0023858295384493466,-0.0008393661855704553
2,97,1.000742420579304,-0.003906992695881785,0.0016986841322634803
2,98,1.0015034698973415,-0.0047007317970701465,0.0038268206866270468
2,99,1.0004039397945275,-0.010885452012358894,0.0161589005597371
2,100,0.9996020574224433,-0.012205708971352477,0.02180584017258336
2,101,1.0037547996689324,0.05154072480085464,0.0056288224538113395
3,1,1.0009569005219074,3.038794348865093e-5,-5.152446533175032e-6
3,2,1.00095838164152,7.692190594625652e-5,-3.6643034620610166e-5
3,3,1.0009579507010695,0.0001037499299918812,-9.628645519925262e-5
3,4,1.000957555840358,0.0001287080027840538,-0.0001792856838495912
3,5,1.000957253095811,0.0001580782691256486,-0.0002827831740418412
3,6,1.0009568806014635,0.00019206064066858868,-0.00040891494825718937
3,7,1.0009563980402578,0.0002305796088844049,-0.0005609369647402823
3,8,1.0009558106147358,0.00027375058313210105,-0.0007418202249514492
3,9,1.0009550799773292,0.0003207297101625842,-0.0009538798731920455
3,10,1.000954186032764,0.0003694440809123509,-0.0011981791797795501
3,11,1.0009531359627117,0.00041647858954915664,-0.0014732803999677943
3,12,1.000951972562698,0.00045699171459513444,-0.0017746787280535927
3,13,1.0009507890189226,0.00048485446443935655,-0.002093815735757185
3,14,1.000949740973569,0.0004930237243132229,-0.002418045637566339
3,15,1.0009490517222743,0.0004741471694719105,-0.0027305775976478506
3,16,1.0009490053465404,0.0004213309328028622,-0.003011544502488139
3,17,1.0009499254165397,0.00032891855512902856,-0.003239047538060295
3,18,1.0009521420347638,0.00019307930795208392,-0.0033909391790235112
3,19,1.0009559516393913,1.2053835614490022e-5,-0.0034460196671789113
3,20,1.000961580617241,-0.00021395374143065858,-0.0033852818697910287
3,21,1.0009691580995383,-0.0004831017556191892,-0.003192167016824958
3,22,1.0009787024479404,-0.0007922287512792149,-0.0028528029384130705
3,23,1.000990113459759,-0.0011369597056050112,-0.002355690969161146
3,24,1.0010031609410905,-0.0015115223317492845,-0.001691991057713157
3,25,1.001017459674596,-0.0019083805462513945,-0.0008558612716942432
3,26,1.0010324351437019,-0.0023179234881798567,0.0001544164988829799
3,27,1.001047294523305,-0.002728459542390119,0.0013354695316897985
3,28,1.0010610190584535,-0.003126655386305593,0.0026776726495249792
3,29,1.0010723952115343,-0.003498431521389653,0.0041648267277131865
3,30,1.0010800927204702,-0.003830198202555392,0.005774279661067554
3,31,1.0010827933912578,-0.0041102061486413145,0.007478219150103019
3,32,1.0010793425625266,-0.004329713485261531,0.009245324976880003
3,33,1.0010688980595193,-0.00448371324127285,0.01104308188856611
3,34,1.001051032547491,-0.004571091358288604,0.012839719011939985
3,35,1.0010257829324105,-0.004594254491998421,0.014606099567330458
3,36,1.0009936277260119,-0.004558378528208507,0.016316738224549612
3,37,1.0009554234496845,-0.004470484321128711,0.01795056687334997
3,38,1.000912298371519,-0.004338518758652938,0.019490868360815466
3,39,1.0008655491303748,-0.004170572607385654,0.02092517106971787
3,40,1.0008165293691893,-0.003974291360930675,0.022244569415582106
3,41,1.0007665712589928,-0.003756494782212789,0.02344326734309285
3,42,1.0007169116180854,-0.003522975139256275,0.02451774844288396
3,43,1.0006686583520243,-0.0032784431810623724,0.025466323919219148
3,44,1.0006227567118315,-0.003026572117372436,0.02628839918464873
3,45,1.0005799911223043,-0.00277011265782838,0.026984169970218026
3,46,1.0005409767101008,-0.002511038537428913,0.027554061846159675
3,47,1.0005061793916519,-0.0022507152059271893,0.027998588668483617
3,48,1.0004759177991012,-0.001990061998125841,0.028317964111591324
3,49,1.000450388554806,-0.0017297195012560373,0.02851208661791893
3,50,1.000429670096569,-0.0014701948212607438,0.028580313710013024
3,51,1.0004137463322715,-0.001212011993657468,0.028521531231525402
3,52,1.0004025100092049,-0.0009558321943792888,0.028334111575372505
3,53,1.000395782398788,-0.000702585368306608,0.028016030901506023
3,54,1.0003933178015292,-0.00045355961694953315,0.027565082273953934
3,55,1.0003948187782108,-0.00021050657137814592,0.02697899840327034
3,56,1.0003999450325134,2.4319234337015625e-5,0.02625604654923853
3,57,1.0004083231099972,0.00024810620086175903,0.02539507009990224
3,58,1.0004195624037984,0.0004575355154984957,0.024396636236563008
3,59,1.0004332556704927,0.0006488207744586762,0.023262794674019933
3,60,1.0004490027956274,0.0008178969993567826,0.021998956815480072
3,61,1.0004663955551323,0.0009605928339078968,0.020612959121893717
3,62,1.0004850482391765,0.0010729835860330938,0.019117809879369143
3,63,1.0005045612568537,0.0011516853668543329,0.017529362070796875
3,64,1.0005245590354808,0.0011943165463645662,0.015870012695121963
3,65,1.0005446359483707,0.0011997939715964773,0.014164071004116142
3,66,1.0005644092943613,0.0011687358494529788,0.012442543012679707
3,67,1.0005834628566248,0.001103564625382057,0.01073536452830014
3,68,1.0006014150687506,0.001008597603330598,0.009077702851623633
3,69,1.0006178892617887,0.0008897358399874289,0.007498743491527251
3,70,1.0006325925471249,0.000754175054856592,0.006030302967026283
3,71,1.0006452964557782,0.0006098627169402222,0.00469283507811578
3,72,1.0006558675914605,0.0004647511001188177,0.0035073855712422835
3,73,1.0006643266896291,0.00032568046137233624,0.002479605794592455
3,74,1.0006708478710409,0.00019816692692416386,0.0016155842220547554
3,75,1.0006756310974618,8.73376256629518e-5,0.0009058961074864579
3,76,1.0006788187309457,-2.858286387759667e-6,0.00034428782847003707
3,77,1.0006808625674661,-7.342766023852993e-5,-9.099832434358915e-5
3,78,1.000682373409975,-0.00013075593481925497,-0.0004146705526083247
3,79,1.0006835723576333,-0.0001793513425517776,-0.0006485413113082621
3,80,1.000683998929165,-0.0002143268784249395,-0.000800196242309286
3,81,1.0006832642029841,-0.00022277239171032437,-0.0008913348855953246
3,82,1.0006815404486902,-0.0001910646987881454,-0.0009452137199081525
3,83,1.0006793672724887,-0.00011099875461172801,-0.0010091873157448224
3,84,1.0006770818139055,1.8441335856533345e-5,-0.0011266486725808897
3,85,1.0006746069879386,0.000192273678488314,-0.0013485457463652012
3,86,1.0006715570909825,0.0003988601202075604,-0.0017045318502563176
3,87,1.0006677760612024,0.0006145351166034543,-0.0022148496179963937
3,88,1.0006622457613197,0.0008084115850383542,-0.0028614111281415723
3,89,1.0006569342451426,0.0009401723106149349,-0.003613810777222334
3,90,1.0006515671587355,0.0009549738035168248,-0.0043799145526876165
3,91,1.000648522181836,0.0008102487641944073,-0.005075934845360918
3,92,1.0006520914459758,0.00040105964303858196,-0.005547820484872268
3,93,1.0006461528336918,-0.0002625182386571636,-0.0057329959608470185
3,94,1.0007045836815553,-0.0010976877320843183,-0.005747887248122406
3,95,1.0007141544771216,-0.00253011777088772,-0.004736524179171125
3,96,1.0005875982089085,-0.003774161699709648,-0.0036248237564265894
3,97,1.0010420480414925,-0.0055347954002914635,-0.0031052568704167186
3,98,1.0006671203823212,-0.012621900836405894,0.0035081801303788167
3,99,0.9994927284774584,-0.017053903665273935,0.005895748211484748
3,100,1.0005629946775065,-0.0027318054342613464,-0.0006345457876215979
3,101,1.0004877876937543,0.05520701767438552,-0.001923003299687679
4,1,1.0009565153120024,4.8832420728471826e-5,-6.431271865030172e-6
4,2,1.0009582100932557,0.0001286780244988829,-4.413901045367615e-5
4,3,1.000957987416846,0.00018597341799493156,-0.00011661569947539886
4,4,1.0009576173896058,0.00023706819595961404,-0.00022064921279110863
4,5,1.0009571816519198,0.00029060084644275683,-0.00035159575793172293
4,6,1.0009568405147309,0.0003514363269532214,-0.000507212265838291
4,7,1.0009564646955775,0.00042078043895897837,-0.0006890486035610241
4,8,1.0009559943337605,0.0004981495702867189,-0.000898912061528371
4,9,1.0009554375817318,0.0005817963056154523,-0.0011361223436172853
4,10,1.0009547912023757,0.0006680062618864072,-0.0013973976843989985
4,11,1.0009540824502265,0.0007510076129441288,-0.0016755786844604556
4,12,1.0009533742852303,0.0008231812616559041,-0.0019594084538103666
4,13,1.0009527664474431,0.0008755944440603286,-0.0022331093247287327
4,14,1.0009524009223878,0.0008989427977111891,-0.0024773633504322394
4,15,1.0009524572091255,0.0008847278322161172,-0.002670272939819699
4,16,1.000953139882605,0.0008264164859387113,-0.0027895426943405368
4,17,1.0009546562205547,0.0007202570862365721,-0.002814048289528894
4,18,1.0009571919137485,0.0005654766097246095,-0.0027256645587580334
4,19,1.0009608891021768,0.00036379632147690553,-0.0025095950872451173
4,20,1.0009658376823942,0.00011849880287473434,-0.0021544036905500287
4,21,1.0009720795033932,-0.00016650127986831876,-0.0016507429198319209
4,22,1.0009796198919658,-0.00048710474236833437,-0.0009906203697151968
4,23,1.0009884262861999,-0.0008387341596342497,-0.00016663694842281504
4,24,1.0009983980967323,-0.0012153968263885566,0.0008271817642746468
4,25,1.001009306195107,-0.0016085402768639906,0.0019941607182706977
4,26,1.0010207167511118,-0.0020062409408134764,0.0033326097535667874
4,27,1.0010319287253209,-0.002393153123042131,0.004834127142612964
4,28,1.001041946988358,-0.0027513906029553717,0.006482077854014312
4,29,1.0010495277550076,-0.0030622574371375537,0.008251906181519593
4,30,1.0010532923691868,-0.003308457000762656,0.010112243314583502
4,31,1.0010519072205324,-0.0034762457667788915,0.012027704631756375
4,32,1.0010442631794214,-0.0035569950235813793,0.013961574035549745
4,33,1.001029637139677,-0.00354785882594052,0.015878967815758576
4,34,1.0010077685491487,-0.0034515106897956543,0.01774872888042785
4,35,1.0009788840840033,-0.003275172819204291,0.019545128938213845
4,36,1.00094363144513,-0.003029247439156885,0.02124805197285138
4,37,1.0009030019248417,-0.0027258814812065567,0.02284321166232414
4,38,1.000858199869065,-0.002377682439055367,0.024321197825336826
4,39,1.0008105527307596,-0.0019967272805875027,0.025677038486916593
4,40,1.0007613923401204,-0.0015938843141958315,0.026908913705592855
4,41,1.0007120046847071,-0.0011784381411905293,0.02801770305979015
4,42,1.00066355093656,-0.0007579461009338612,0.02900580186590375
4,43,1.0006170643511652,-0.00033827597684735823,0.02987690702275141
4,44,1.0005734052606294,7.625090967511326e-5,0.030635049075041013
4,45,1.0005332905751403,0.0004826461519517927,0.03128463552250552
4,46,1.0004972663492877,0.0008790215818096381,0.03182966090052802
4,47,1.0004657527450953,0.0012643465136137316,0.03227394101043613
4,48,1.0004390207570717,0.0016382242120225865,0.0326204242581797
4,49,1.0004172409161405,0.0020006770302915403,0.032871542833432535
4,50,1.0004004572667071,0.0023519590661104654,0.03302856019004768
4,51,1.0003886340818309,0.002692373097272627,0.03309198735491807
4,52,1.000381625665986,0.0030221118994445367,0.03306093308368109
4,53,1.000379219664274,0.0033410905603812775,0.0329335658135289
4,54,1.000381105140808,0.0036488026129246703,0.03270648047212442
4,55,1.0003869139266448,0.003944154749376912,0.03237522617579068
4,56,1.0003961923021005,0.0042253391687764414,0.03193377472172955
4,57,1.0004084435833416,0.004489681522363063,0.031375177184728896
4,58,1.0004231105557941,0.004733566161123125,0.030691315439448672
4,59,1.000439622246094,0.004952351193132697,0.029873771071891465
4,60,1.00045739319655,0.0051404324105361315,0.0289141338889126
4,61,1.0004758724686418,0.005291327291319575,0.02780509453385023
4,62,1.0004945592792445,0.005397997329539676,0.026541593304786358
4,63,1.0005130408533802,0.005453210782556737,0.02512187910725903
4,64,1.0005310116577697,0.005450196038846412,0.023549610589111664
4,65,1.0005482757040944,0.0053832895543874425,0.02183411608706367
4,66,1.000564752408418,0.005248813852431809,0.019993202671532203
4,67,1.000580420838278,0.005045770705422716,0.018051322661215126
4,68,1.0005953155490959,0.004776558737145196,0.016042592435899606
4,69,1.0006094308786213,0.004447245499659694,0.014005519727988051
4,70,1.0006227471976115,0.004067617949896356,0.011985968179970066
4,71,1.0006351304865038,0.0036506348071331384,0.010028151431832421
4,72,1.0006464257839922,0.0032116002913622115,0.008178312051938441
4,73,1.0006563996446818,0.0027666596135262744,0.0064730824276268755
4,74,1.0006649396773397,0.0023313297138153393,0.004944933585756023
4,75,1.0006719626674583,0.0019197458310825524,0.0036109564858964618
4,76,1.0006774164450545,0.0015444959518188428,0.002482870732252352
4,77,1.000681228099774,0.00121351150179156,0.0015559503884212524
4,78,1.0006838180020137,0.0009256608133381868,0.0008182873821683936
4,79,1.0006858205307427,0.0006739091863642613,0.0002452955700208038
4,80,1.000687424247163,0.0004589843070261939,-0.00018071815611133484
4,81,1.0006880238772469,0.00029862510821417347,-0.00047892594301298134
4,82,1.0006872070989443,0.0002220586423032268,-0.0006722895366730107
4,83,1.0006853909008833,0.0002535339618707187,-0.0008091034259248239
4,84,1.000683404163911,0.0003991111931644499,-0.0009515747398858633
4,85,1.0006819119370407,0.0006456102189014749,-0.001168866143459383
4,86,1.0006809328962263,0.0009580333991681776,-0.0015059553911135422
4,87,1.0006793316687703,0.0012828843909486866,-0.0019764859692890852
4,88,1.000677773742918,0.0015527737332069003,-0.002549541332716355
4,89,1.000674601429926,0.0016863245218312172,-0.0031434244425945475
4,90,1.000673179005235,0.0016097622184219867,-0.003668148081260934
4,91,1.0006712838820944,0.0012233105065028195,-0.0039637943916157594
4,92,1.0006624410575908,0.0005686215161443068,-0.004012353509866657
4,93,1.0007007571026514,-0.00032271419042360385,-0.003912580745407232
4,94,1.0006761125065338,-0.00187109929264843,-0.0030871602088552545
4,95,1.0006394501221596,-0.003233408686563251,-0.002598972647151196
4,96,1.000963287465868,-0.004651891869160163,-0.0021875985739820496
4,97,1.0005623763834592,-0.010053806685817806,0.0024355863949314886
4,98,1.0000329601794797,-0.014531233121395261,0.0029445392400190705
4,99,1.0008729801537712,-0.01079811455296148,-0.0021133293679916018
4,100,1.0012643069195037,-0.0015458584134477374,-0.002472324849995295
4,101,0.9997619045231302,0.05210066490238369,-0.000552019758247584
5,1,1.0009562109539845,6.869554483302934e-5,-7.402719655451839e-6
5,2,1.0009581003864327,0.0001879673624894555,-5.112050346051796e-5
5,3,1.0009578473741225,0.00028030770440737345,-0.00013475735294587982
5,4,1.0009576032151422,0.00036171420776359866,-0.000252517253008871
5,5,1.0009572177466062,0.00044030227109309567,-0.00039910618846932243
5,6,1.0009568241290983,0.0005232569428086995,-0.0005699033466165212
5,7,1.0009565188402563,0.0006142071997258138,-0.0007617066420195687
5,8,1.0009561761949144,0.0007108473495316794,-0.0009728775844502055
5,9,1.0009557448855648,0.0008072643202325713,-0.0011988930978180986
5,10,1.000955246200486,0.0008949826429181705,-0.001431103215894154
5,11,1.0009546939014788,0.0009628725990365341,-0.0016563591951304646
5,12,1.000954123388409,0.000997830018228862,-0.0018578707164689
5,13,1.0009535974464019,0.0009860968895409473,-0.0020156132049914755
5,14,1.000953207115346,0.0009149484620681206,-0.0021085442899979124
5,15,1.0009530733282133,0.0007744140048497534,-0.002116151469132862
5,16,1.0009533415843124,0.0005585127254583803,-0.002020893264182888
5,17,1.0009541692325157,0.00026558157782243777,-0.0018088415494518578
5,18,1.0009557162489526,-0.00010244570551407972,-0.0014700772034553671
5,19,1.0009581438742148,-0.0005415179163385603,-0.000996839245589247
5,20,1.0009616296418153,-0.0010470053983368788,-0.000381932009391328
5,21,1.000966384199838,-0.001614492640040005,0.00038358070999825833
5,22,1.0009726471351268,-0.002239298625888176,0.0013104424165434128
5,23,1.0009806352375012,-0.00291481647006249,0.0024103782715383507
5,24,1.0009904375949392,-0.0036303546214181866,0.0036925980169241887
5,25,1.0010018868520207,-0.004369450527724089,0.005160417454700468
5,26,1.0010144363460602,-0.0051094474886226315,0.006807209035631933
5,27,1.0010271028799484,-0.00582272755710995,0.008614829781101823
5,28,1.001038492935408,-0.006479457535688238,0.010553226179808674
5,29,1.0010469565814377,-0.007051237888446604,0.012583399169260243
5,30,1.0010507987824193,-0.0075146950118517375,0.014660906684421396
5,31,1.0010485396467206,-0.007854138370924824,0.016741075028602326
5,32,1.001039094692237,-0.008062733280904124,0.01878249941722952
5,33,1.0010219161965186,-0.008142182358846036,0.020750579550733256
5,34,1.0009969876623177,-0.008101245866789506,0.022618291178350687
5,35,1.00096480524702,-0.007953665653144086,0.024367055471228277
5,36,1.0009262364118439,-0.007715968822414363,0.02598524967518643