TITLE="CMs_NON_Orthogonal Re = 10000.0"
VARIABLES = X,Y,Rho,U,V
ZONE
I = 101	J = 101
F=POINT
1,1,1.000825279073058,2.3946389050356507e-6,-2.858756442175653e-6
1,2,1.000826378082477,5.60015336014357e-6,-1.801862593694624e-5
1,3,1.000826344130215,5.486030255413139e-6,-3.576827886974309e-5
1,4,1.0008269022605476,6.5449713155061245e-6,-5.5993105945978225e-5
1,5,1.0008275374824618,7.63549025066345e-6,-8.051812222727288e-5
1,6,1.0008282612390422,8.59875059171013e-6,-0.00010990384071271065
1,7,1.0008291089486268,9.410654874447999e-6,-0.0001447473245408077
1,8,1.0008300923547995,9.906835428469011e-6,-0.00018604170887793586
1,9,1.0008312014689715,9.81010401608217e-6,-0.00023467693213784452
1,10,1.0008324193683742,8.733126286486933e-6,-0.0002916483541107672
1,11,1.000833715069658,6.162686252354355e-6,-0.0003575943327952562
1,12,1.000835047355679,1.4420293727204362e-6,-0.00043286916112134126
1,13,1.0008363718237572,-6.223359604273573e-6,-0.0005169523997923474
1,14,1.000837656565797,-1.7732180568601252e-5,-0.0006084431179206942
1,15,1.000838902670133,-3.402917309542685e-5,-0.0007045435924985826
1,16,1.0008401671322575,-5.600726555775265e-5,-0.0008012129947600754
1,17,1.0008415765542276,-8.44038174028568e-5,-0.0008929898123552786
1,18,1.0008433237537657,-0.00011969697538523574,-0.0009734962902829626
1,19,1.0008456389482356,-0.0001620534317697729,-0.0010356394774630692
1,20,1.0008487428918706,-0.00021131716156237904,-0.0010722767710167186
1,21,1.000852791862169,-0.0002670554129458308,-0.0010764377515547912
1,22,1.0008578331452924,-0.0003286130323155842,-0.0010417648045740596
1,23,1.0008637778628695,-0.00039516908652331885,-0.0009625110013489196
1,24,1.0008703941696,-0.0004657585153220151,-0.0008337635537147024
1,25,1.0008773100272141,-0.0005392795709437511,-0.000651430675376589
1,26,1.000884020861249,-0.0006144860586340333,-0.00041254715839191214
1,27,1.0008899007869032,-0.0006899963766050739,-0.00011545432747385501
1,28,1.000894225433113,-0.0007643155506479845,0.00023976455787028434
1,29,1.0008962055216641,-0.0008358860840647266,0.0006510326679553827
1,30,1.0008950322251726,-0.0009031617624714652,0.0011139426198920792
1,31,1.0008899351753446,-0.0009647135032245545,0.001621748770663582
1,32,1.0008802535869687,-0.001019341925433176,0.0021654560486878863
1,33,1.0008655093565968,-0.0010661739787339963,0.002734301324342282
1,34,1.0008454687923336,-0.0011047102004612718,0.003316298642627837
1,35,1.0008201801395664,-0.001134824286766662,0.0038989978432549493
1,36,1.0007899806492675,-0.001156717416522827,0.00447011714466127
1,37,1.000755472000719,-0.0011708501578770742,0.005018193876678802
1,38,1.0007174704050577,-0.001177861437088988,0.005532986596267675
1,39,1.000676940790584,-0.0011784934576166404,0.006005815364195995
1,40,1.0006349266117993,-0.001173524263989884,0.006429650070265931
1,41,1.0005924837003481,-0.0011637178679701444,0.006799160129909763
1,42,1.0005506253369638,-0.001149786781495301,0.0071105782428362956
1,43,1.0005102801409556,-0.001132371516499003,0.007361584129240741
1,44,1.000472264915645,-0.0011120290126758778,0.007551076542646729
1,45,1.0004372684834837,-0.0010892328602045461,0.00767901059492684
1,46,1.0004058473283812,-0.0010643771032338807,0.007746178112414544
1,47,1.0003784259287682,-0.0010377868714464098,0.007754069614144638
1,48,1.0003553048919598,-0.0010097283868655436,0.007704714797288628
1,49,1.0003366673176068,-0.0009804228115495432,0.007600593316324714
1,50,1.0003225913334437,-0.0009500567139750598,0.007444552414198095
1,51,1.0003130554933957,-0.0009187955273587664,0.007239758829589523
1,52,1.0003079520323253,-0.0008867911298985111,0.00698969403400608
1,53,1.0003070881258889,-0.0008541938942220081,0.006698118567724554
1,54,1.0003102000936803,-0.000821154463430673,0.006369142965540313
1,55,1.0003169499990763,-0.0007878354755947986,0.006007155811161758
1,56,1.000326943774553,-0.0007544029455689151,0.005616978519353316
1,57,1.0003397239275016,-0.0007210420054230786,0.005203679091012752
1,58,1.000354796115936,-0.0006879291518470873,0.004772848244056151
1,59,1.0003716186412925,-0.0006552634760903192,0.004330170593554496
1,60,1.0003896420781397,-0.0006232028222691745,0.0038819285904732885
1,61,1.0004082948735433,-0.0005919364121679205,0.0034341124232676926
1,62,1.0004270387288194,-0.0005615533655758039,0.002993405302914988
1,63,1.0004453465086296,-0.0005322073802807744,0.0025654489885219172
1,64,1.0004627725711848,-0.0005038599924527741,0.002156840785795562
1,65,1.0004789176942348,-0.00047662036464037717,0.0017718799484845438
1,66,1.0004935056865398,-0.00045029058355083585,0.001416542682563944
1,67,1.000506327800543,-0.00042494609353572506,0.0010926599670914446
1,68,1.0005173240089427,-0.000400252374270801,0.0008051760705060769
1,69,1.0005265066257223,-0.00037628036037741313,0.000552609024743248
1,70,1.0005340052924623,-0.0003527048990325836,0.0003387486109194774
1,71,1.000539989886372,-0.0003295662847535477,0.00015879894275617318
1,72,1.0005447668477623,-0.0003066107795387906,1.540337869519661e-5
1,73,1.0005486356959832,-0.00028404849664983667,-9.879938215004449e-5
1,74,1.0005518271592249,-0.00026190241080981797,-0.00018138331945920586
1,75,1.0005545578708532,-0.00024028254111576816,-0.0002407225773696638
1,76,1.0005572038938313,-0.0002191887335186415,-0.00027438992276912244
1,77,1.000560010372238,-0.0001990652803532841,-0.0002911244488560243
1,78,1.0005629068045203,-0.0001802350807177127,-0.00028689389016006955
1,79,1.000565703326259,-0.00016279055998647508,-0.00026922616321974687
1,80,1.0005684677168114,-0.00014623079637245248,-0.00023370930968323104
1,81,1.0005713987545692,-0.00013011893382223734,-0.00019024656288479103
1,82,1.0005746474250377,-0.00011393609113700943,-0.00013668965435325935
1,83,1.0005781470539812,-9.749588230166344e-5,-8.552791396268938e-5
1,84,1.0005817618814161,-8.04753364015212e-5,-3.53753895327764e-5
1,85,1.0005853827783096,-6.314852721506842e-5,1.7143944544100215e-7
1,86,1.0005887873658905,-4.525614334601044e-5,2.307464667028229e-5
1,87,1.0005920531181254,-2.8234848034534927e-5,1.969384047723569e-5
1,88,1.0005946017001708,-1.3448788658551158e-5,-2.4539682316255484e-6
1,89,1.0005962816000518,-2.9878909258124484e-6,-4.942023407972336e-5
1,90,1.0005968295346621,-1.8221648137094859e-6,-9.736353499719608e-5
1,91,1.0005958239105972,-6.263752180670438e-6,-0.00013664655263910189
1,92,1.0006032249252925,-3.748379199397678e-5,-0.00011557502904001784
1,93,1.0006043832112996,-9.867331343999886e-5,3.9413553511944636e-5
1,94,1.000602810143653,-0.00017898336142474245,0.00041071444498871684
1,95,1.0006015257176024,-0.0002692554005013624,0.0010470526750117554
1,96,1.0006582495969178,-0.0002390673122942851,0.0018020379708996405
1,97,1.0008435849668027,-0.0009950652541084756,0.0034603883143560945
1,98,1.0001602382493715,-0.0010659653015829336,0.006614674140005335
1,99,1.0006181919109156,0.0005876927964510466,0.00766146119199567
1,100,1.0017972137493418,-0.007684854700059061,0.01639647189065922
1,101,0.9963908897490696,0.026525608820211613,0.01399832598709328
2,1,1.0008241008457375,1.8302334637242563e-5,-5.849714802570707e-6
2,2,1.000825186010921,3.6914423346820774e-5,-3.559757710443371e-5
2,3,1.0008246318386014,4.129505580790185e-5,-7.911846215660132e-5
2,4,1.000824871858059,4.9729971867201026e-5,-0.00013138091458035487
2,5,1.0008250829614627,6.103045110934118e-5,-0.0001958580389629363
2,6,1.0008252309223973,7.36588297612349e-5,-0.00027498325288348273
2,7,1.0008254192363628,8.84578180825328e-5,-0.00037017822065143504
2,8,1.0008256225774645,0.00010604011898212124,-0.000483870398707542
2,9,1.0008258109477608,0.00012661989549621786,-0.0006185008351693511
2,10,1.000825961036773,0.00015018246340897743,-0.0007762610178321631
2,11,1.0008260603399777,0.00017630954355107227,-0.0009582552512356093
2,12,1.0008261157387843,0.0002040078671984265,-0.0011640722214770617
2,13,1.0008261713776379,0.00023164595217481742,-0.0013906679130249123
2,14,1.000826326519159,0.00025703866123151904,-0.0016319372409432206
2,15,1.00082675324581,0.0002776849959236954,-0.001878057526113086
2,16,1.0008276997795562,0.0002911370864283632,-0.002115903346931642
2,17,1.0008294756842466,0.0002954184657760411,-0.002329537114385942
2,18,1.0008324092298737,0.0002893508317576612,-0.002501684254260958
2,19,1.0008367913589824,0.00027266842097604634,-0.0026149130019206346
2,20,1.0008428159686868,0.0002458764679838197,-0.0026530743111946396
2,21,1.0008505412015087,0.00020993600379876938,-0.0026018466905276573
2,22,1.0008598732711784,0.00016593225051319573,-0.0024491580777105033
2,23,1.0008705753017035,0.00011488860645219395,-0.0021848830496379976
2,24,1.0008822795224392,5.779509424313469e-5,-0.0018008403393783444
2,25,1.000894497915293,-4.187262509898288e-6,-0.0012906634088515573
2,26,1.0009066227042627,-6.94619553776081e-5,-0.0006502991095170013
2,27,1.0009179314543777,-0.00013577693615109845,0.0001214989696940594
2,28,1.0009275935011683,-0.00020012418324056734,0.001022251560376263
2,29,1.0009346925616542,-0.0002588142540942637,0.002045148296018865
2,30,1.0009382671006448,-0.0003077596830331172,0.0031784997752317304
2,31,1.0009373839579312,-0.0003429230450718794,0.004405908578282425
2,32,1.0009312260774843,-0.0003608172679955402,0.005706772699293656
2,33,1.0009191880570398,-0.0003589292438365652,0.0070574633341640835
2,34,1.0009009479684332,-0.0003359796991339248,0.008432593899503639
2,35,1.0008765139351916,-0.000291985204338224,0.009806540706426467
2,36,1.0008462237867015,-0.00022814124375310454,0.011154655629133647
2,37,1.0008107156853925,-0.0001465779999944209,0.012454378410455458
2,38,1.0007708622690303,-5.005597762842582e-5,0.01368586109064658
2,39,1.0007276994563872,5.834029993154045e-5,0.014832411486374524
2,40,1.000682342794736,0.00017546806631364283,0.01588051400716628
2,41,1.0006359220995313,0.000298331261586758,0.016819756625145905
2,42,1.0005895176185362,0.0004242175616255432,0.01764249772169053
2,43,1.0005441244621163,0.0005507745744472923,0.0183435440074148
2,44,1.0005006187122323,0.0006760335023124666,0.01891972308677857
2,45,1.0004597514920641,0.0007983964737758167,0.019369515098559106
2,46,1.0004221373586557,0.0009165954068195699,0.019692701854826154
2,47,1.0003882674566633,0.0010296389551262427,0.019890049781339136
2,48,1.0003585078995192,0.0011367478146657572,0.019963122999056768
2,49,1.0003331217079041,0.00123729504950735,0.01991403278745967
2,50,1.0003122672917244,0.0013307416529116291,0.019745457620815646
2,51,1.0002960232643492,0.00141658867757335,0.019460422355372795
2,52,1.000284380920933,0.0014943239013561062,0.01906255957423227
2,53,1.0002772705666771,0.0015633960556882618,0.018555844331153558
2,54,1.000274544516783,0.001623177620616956,0.01794514453691653
2,55,1.0002760071899723,0.0016729698734644026,0.017235795028886926
2,56,1.0002813862826485,0.0017119854637263725,0.016434508794400747
2,57,1.000290371877202,0.0017393940816583298,0.015548612325387918
2,58,1.00030257349322,0.0017543270320072332,0.014587419392167168
2,59,1.0003175763296686,0.0017559714946468279,0.013560861895980873
2,60,1.000334881243294,0.0017435935796564117,0.01248146823603917
2,61,1.0003539887724011,0.001716679254733845,0.011362018609073498
2,62,1.0003743176974536,0.001674958156409264,0.010218337874143987
2,63,1.000395328433857,0.0016185693942443779,0.009065509954850707
2,64,1.000416413298207,0.0015480568685697187,0.00792181613983605
2,65,1.0004370677448766,0.001464506577942908,0.006803001547919381
2,66,1.000456743246263,0.0013694701358986565,0.005727877686992147
2,67,1.0004750660628825,0.0012650380729380922,0.004710190420540368
2,68,1.0004916408410818,0.0011536784307409438,0.0037665737552859476
2,69,1.0005063106387746,0.0010381400811098446,0.0029057656306566318
2,70,1.000518909160395,0.0009212185127129636,0.0021395963931553808
2,71,1.000529520785374,0.0008057771979898327,0.0014696608269093895
2,72,1.000538192105035,0.0006944308506457562,0.0009015307789142053
2,73,1.0005452666032402,0.000589061485189106,0.000429137702679148
2,74,1.0005509875940901,0.000490729002109848,5.248507753270259e-5
2,75,1.0005556891270693,0.0004005079227340538,-0.00023958222461026196
2,76,1.000559578125194,0.00031927432726038934,-0.00045024473898045895
2,77,1.0005631919083893,0.00024646665398393513,-0.0005943886634589575
2,78,1.0005667440012787,0.000180319822665277,-0.0006759342864090397
2,79,1.0005701984161233,0.00012034878369835803,-0.0007082687059432196
2,80,1.0005731584245436,6.882689418759736e-5,-0.0006936859489771886
2,81,1.0005756499516036,2.9394195872287428e-5,-0.0006501206373630795
2,82,1.0005777074778992,5.238567115012265e-6,-0.0005888629190166649
2,83,1.0005795763476075,-1.6702420384388058e-6,-0.0005386716321575156
2,84,1.0005809794063967,9.186611422793112e-6,-0.0005174684652457561
2,85,1.0005818128964636,3.8231401586114725e-5,-0.0005575960464508932
2,86,1.0005817943089688,8.403512473884835e-5,-0.0006759355849439233
2,87,1.0005805325062296,0.0001421455090094674,-0.0008992724965772197
2,88,1.0005783795283532,0.00020095718220445376,-0.001228228473367101
2,89,1.0005745529164431,0.00024247299033100983,-0.0016565877863990615
2,90,1.0005705208218187,0.0002490487888059119,-0.002143951369830537
2,91,1.0005692004916638,0.000182218126864543,-0.002620043262611418
2,92,1.000571547076812,9.268597722832811e-6,-0.0029780615497770582
2,93,1.0005947314746768,-0.00035668423419870016,-0.003086936302254802
2,94,1.000603357556514,-0.0008344746860723888,-0.002755416314485493
2,95,1.0006594386444185,-0.001174543830741302,-0.0021345189540208846
2,96,1.000724299115511,-0.002299619208452746,-0.00042454266842012294
2,97,1.0006273889111477,-0.0037737487734636685,0.001984546952148112
2,98,1.0013787351458088,-0.004527163567810355,0.003933146426403487
2,99,1.0002831520925008,-0.010806090774438682,0.016150999542866765
2,100,0.9995018382712753,-0.012228862501744731,0.02179777491064094
2,101,1.0036475738384545,0.05152589814951669,0.005629565793270958
3,1,1.0008241134929639,3.4025269882209544e-5,-5.5832978284566115e-6
3,2,1.0008257438802748,7.847403728063799e-5,-3.819617084091822e-5
3,3,1.0008252243849984,9.72056261191625e-5,-9.434454510600782e-5
3,4,1.000825195079036,0.0001191810155655074,-0.00016966928657335953
3,5,1.0008253674974787,0.00014671892021193625,-0.000263601001169048
3,6,1.0008254867329085,0.0001771998356195493,-0.0003786498558816576
3,7,1.000825588053506,0.00021102695307901922,-0.0005170192316474967
3,8,1.0008257115190111,0.00024901630380471545,-0.0006808941752578823
3,9,1.0008258089810411,0.0002905236928982154,-0.0008723349653183798
3,10,1.0008258580323774,0.0003336575503228927,-0.001092391829513661
3,11,1.000825866092902,0.0003751842297698386,-0.0013396482644779017
3,12,1.0008258691692629,0.0004102223195829648,-0.00160958765898984
3,13,1.0008259459955644,0.0004323205035780347,-0.0018933041063931963
3,14,1.0008262304606304,0.0004340082197819446,-0.002177357360857655
3,15,1.0008269171748578,0.0004077867529614568,-0.002443745946958043
3,16,1.0008282509168869,0.0003473674142178669,-0.0026714750615449835
3,17,1.000830495618438,0.0002487977036865471,-0.002838250363092102
3,18,1.000833887248857,0.00011106660255716169,-0.0029230267029037625
3,19,1.0008385831671889,-6.405482320134373e-5,-0.002907558330153806
3,20,1.0008446273591685,-0.0002728468944496379,-0.002777586999328559
3,21,1.000851942180363,-0.0005107497386777765,-0.0025224499067641308
3,22,1.000860345649219,-0.0007732402501017322,-0.0021344942532693636
3,23,1.0008695768677685,-0.001056137500701682,-0.0016078646992879547
3,24,1.0008793114054528,-0.0013553135502146797,-0.0009381732150006007
3,25,1.0008891591481168,-0.0016660624826905037,-0.00012238426870136683
3,26,1.0008986470813501,-0.001982453905058831,0.000840204908352538
3,27,1.000907195347746,-0.002296928954957675,0.001946997933548119
3,28,1.0009140961706149,-0.002600310171338175,0.0031906925661777507
3,29,1.0009185220240562,-0.0028823144587030655,0.004558696097451066
3,30,1.0009195719487374,-0.003132497185141301,0.006032882922629241
3,31,1.000916360161246,-0.003341394834594801,0.007590545200790212
3,32,1.0009081184328514,-0.0035015688667291204,0.00920560066446773
3,33,1.0008943012141815,-0.003608321104091777,0.0108505190238479
3,34,1.000874656861551,-0.003659965044493388,0.01249788568804358
3,35,1.0008492678593037,-0.0036576692001064966,0.014122085095549075
3,36,1.0008185368299882,-0.0036049728758795426,0.01570019563688165
3,37,1.0007831482203213,-0.003507125327422081,0.017212804093891823
3,38,1.0007439926868282,-0.0033703841705271065,0.018644028816791173
3,39,1.0007020966769153,-0.0032013827331063703,0.019981598671268867
3,40,1.000658537349254,-0.003006620822956675,0.021216326591579605
3,41,1.0006143854814271,-0.0027921055609806426,0.022341840016510153
3,42,1.0005706435402417,-0.0025631296259338437,0.02335387064442969
3,43,1.0005282199198569,-0.002324172345908159,0.024249936072736775
3,44,1.0004878959701964,-0.0020788883982695355,0.025028669102006865
3,45,1.0004503277735013,-0.0018301657332801583,0.02568959452306774
3,46,1.0004160334530217,-0.001580219124607129,0.026232586674856416
3,47,1.0003854108908856,-0.0013307127642660814,0.026657775090499682
3,48,1.0003587345679787,-0.0010828849072954238,0.026965147166503115
3,49,1.0003361790003997,-0.0008376823415012771,0.027154564862576086
3,50,1.0003178180739483,-0.0005958797315340852,0.027225512324027885
3,51,1.0003036481208252,-0.00035820454785208053,0.027177191393497124
3,52,1.0002935871855887,-0.00012543718200165382,0.027008430771701696
3,53,1.0002874951178555,0.00010148069715959302,0.02671782666875492
3,54,1.0002851734276923,0.00032137331973121526,0.026303864446072703
3,55,1.0002863814963021,0.0005327463107496947,0.025765062426717354
3,56,1.0002908392750758,0.0007337554527770702,0.025100397372666578
3,57,1.0002982386740258,0.0009221626640190689,0.02430937495787384
3,58,1.0003082514131967,0.0010953721324288947,0.023392884513351773
3,59,1.000320533217252,0.0012504535295232572,0.022353037686110307
3,60,1.0003347380741843,0.0013842777945318808,0.021194590060547563
3,61,1.0003505110145623,0.0014936321968614219,0.019924245171898766
3,62,1.0003675090098336,0.0015754728347236813,0.01855276148679931
3,63,1.000385378755621,0.001627127003654822,0.017093225686172126
3,64,1.0004037847748282,0.0016466338032317474,0.015563932402815246
3,65,1.0004223727683836,0.0016329610327981208,0.01398497199051222
3,66,1.0004408099066553,0.0015863268487972225,0.012381983008365849
3,67,1.0004587442018509,0.0015083124618251805,0.010780409544397901
3,68,1.0004758541625804,0.0014020107690940688,0.00921039367072809
3,69,1.000491820274663,0.0012718454791879757,0.007698380742557313
3,70,1.0005063907705536,0.0011233987918182944,0.006273587765719596
3,71,1.0005193678532682,0.0009630783012882516,0.004957279928631162
3,72,1.0005306264580984,0.0007977543371635545,0.0037716071180677537
3,73,1.000540138127997,0.0006338075129386878,0.0027271673674619515
3,74,1.0005480314021238,0.000476297305404147,0.0018343193288587576
3,75,1.0005545278054728,0.00032940394445159574,0.0010907527396918828
3,76,1.000559767734533,0.00019720790487028978,0.0004959586139295777
3,77,1.0005639946557434,8.20529630009818e-5,3.679073162584266e-5
3,78,1.0005676310581135,-1.722130639699816e-5,-0.00029745378366106745
3,79,1.0005709704066146,-0.00010226122037261525,-0.0005268278686400518
3,80,1.0005737705857547,-0.00016944104326190116,-0.0006631129994265954
3,81,1.0005756259773346,-0.00020881701841996843,-0.0007287874533865218
3,82,1.0005764598570677,-0.00020840271306564971,-0.000747404426327896
3,83,1.0005765408138343,-0.00015922172067321067,-0.0007619503770801233
3,84,1.00057611426266,-5.770662012934473e-5,-0.0008155576623876604
3,85,1.0005751718377955,9.524149350183002e-5,-0.0009602298458418773
3,86,1.0005735078108706,0.00029360698444052256,-0.001235193663139407
3,87,1.0005711191493754,0.0005172701895835474,-0.0016725488193427473
3,88,1.000566890760287,0.0007328057900608221,-0.002268684251250889
3,89,1.0005624770471073,0.0008922615130851097,-0.0029995114477352454
3,90,1.000557375916927,0.0009294925464723054,-0.003771071702351126
3,91,1.0005533282927102,0.0007958342348094033,-0.004486059698651478
3,92,1.000555324897496,0.0003910082738813126,-0.004982258953899631
3,93,1.0005476783973402,-0.00026378922430780167,-0.0051876082946054995
3,94,1.0006021718818792,-0.0010557932182309253,-0.005239338892694941
3,95,1.0006082726713423,-0.0024090684291834894,-0.0042948631438875775
3,96,1.000480249459554,-0.003552191797371962,-0.003284722163026143
3,97,1.0009293808422786,-0.005201389816197209,-0.0029437534316880585
3,98,1.0005566738749199,-0.012331788281922674,0.0035621095938523704
3,99,0.9994000638014109,-0.01695178524685258,0.005942832919034394
3,100,1.0004566342336754,-0.002735047969842506,-0.0006282425614261921
3,101,1.00037453555814,0.0551897161418133,-0.0019285310237188611
4,1,1.0008234893624166,5.361203269564341e-5,-6.838293756943431e-6
4,2,1.0008253366045046,0.00012918193318401598,-4.547985833929756e-5
4,3,1.0008250339422156,0.00017265599205949238,-0.00011384611940163831
4,4,1.0008249971278556,0.000217408627396358,-0.00020904359399576014
4,5,1.000825030775929,0.0002673295530203498,-0.0003285964056167782
4,6,1.0008252101262165,0.00032244730228175785,-0.00047097353609213777
4,7,1.0008254170248074,0.00038359167377131497,-0.000637074700631807
4,8,1.0008256448953619,0.00045135581743307844,-0.0008277485746490966
4,9,1.000825918321524,0.0005246245114037107,-0.0010418941691197608
4,10,1.0008262237334864,0.0005998426968073936,-0.0012764326428913494
4,11,1.0008265842778947,0.0006710869619703744,-0.001524487717454722
4,12,1.0008270564169732,0.0007300658924318175,-0.001774973326354563
4,13,1.0008277222924242,0.0007665789067046739,-0.002011916953254601
4,14,1.0008286962082875,0.0007698472950721493,-0.0022154783401096014
4,15,1.0008301222884002,0.0007304528417565696,-0.0023631087809777218
4,16,1.0008321608005462,0.0006423008274837775,-0.0024324053980525925
4,17,1.0008349592935564,0.000503870371487577,-0.002403287662924933
4,18,1.0008386175059059,0.0003181876814512441,-0.002260301810363773
4,19,1.000843158958887,9.147680249152893e-5,-0.001992761995457883
4,20,1.0008485259730815,-0.00016893347193635948,-0.0015942152745852848
4,21,1.000854600311854,-0.0004565084120202085,-0.0010602449449447842
4,22,1.0008612349380974,-0.0007664058107170478,-0.00038704677035306074
4,23,1.000868273109539,-0.0010951147966534206,0.0004298364390619169
4,24,1.0008755376318015,-0.0014391658077818335,0.0013947881459518098
4,25,1.0008827926656831,-0.001793554823411903,0.0025109122605128853
4,26,1.000889681325035,-0.0021504893728654002,0.0037774551924916705
4,27,1.0008956688813915,-0.002498911455787896,0.005187950634580291
4,28,1.0009000151547807,-0.0028250170042672966,0.0067284969012405445
4,29,1.0009018147875672,-0.0031136839805415463,0.008378013546366046
4,30,1.0009000842734563,-0.0033503931252817083,0.010109154256037957
4,31,1.0008938958260436,-0.0035231169585261475,0.011890865044238303
4,32,1.0008824988091152,-0.003623718529155954,0.013690653925543802
4,33,1.0008654338423026,-0.003648629178160197,0.015477421033375864
4,34,1.0008425793898286,-0.003598775938698612,0.017223041585854897
4,35,1.0008141733447375,-0.00347892890375779,0.018903972919334763
4,36,1.0007807616671676,-0.0032966965873799823,0.02050141379980174
4,37,1.0007431508969369,-0.0030614242616305094,0.02200166796510602
4,38,1.0007023089200007,-0.0027831636326093845,0.023395322937401347
4,39,1.0006593062310194,-0.0024718381875777837,0.02467701949866897
4,40,1.0006152196993492,-0.0021366313281422156,0.025844290631462454
4,41,1.0005710999042552,-0.001785608464846812,0.026897266097101958
4,42,1.0005279004226042,-0.0014255254963150162,0.02783754843931967
4,43,1.0004864799797166,-0.0010617955627904776,0.02866809006035711
4,44,1.0004475564310953,-0.0006985541787120389,0.029392229768433732
4,45,1.0004117355144082,-0.0003387990589218619,0.030013784525226694
4,46,1.0003794790448386,1.544147154808583e-5,0.03053623601898479
4,47,1.00035114799174,0.0003629179695479269,0.030962996335645875
4,48,1.0003269748785877,0.0007029774607035264,0.031296690879735224
4,49,1.00030711166831,0.001035380177444378,0.03153954163663927
4,50,1.0002916005456826,0.0013601368306366286,0.03169269590992762
4,51,1.0002804213044558,0.0016773463805220463,0.03175668442210199
4,52,1.0002734588658941,0.0019870557509238983,0.03173076857970845
4,53,1.0002705482871004,0.0022891123457528363,0.03161345489747743
4,54,1.0002714405384554,0.002583040020298148,0.03140186966423387
4,55,1.0002758456052852,0.002867899066850037,0.031092340176188456
4,56,1.000283400353288,0.0031421804650364486,0.03067985715206637
4,57,1.0002937115810402,0.0034036806294561565,0.030158761971265387
4,58,1.0003063312033307,0.0036494386109584536,0.029522423739487144
4,59,1.0003208010606779,0.003875660750185181,0.028764082304577377
4,60,1.000336640176668,0.004077757610144748,0.027876930499277502
4,61,1.0003533901135158,0.00425038536570322,0.026855113042858394
4,62,1.0003706153007086,0.0043876634005663,0.025694417635678073
4,63,1.0003879409263956,0.004483409762977941,0.024393256866034836
4,64,1.0004050596085217,0.004531598122279869,0.02295407297327836
4,65,1.0004217460636722,0.004526808215818726,0.02138380663974574
4,66,1.0004378607335627,0.004464880209887338,0.019695886435731336
4,67,1.0004533241644247,0.0043434551899393095,0.0179093190528758
4,68,1.0004681149642531,0.004162600496921901,0.01605092308013006
4,69,1.0004822081144626,0.003925143329101597,0.01415207219564532
4,70,1.0004955939081033,0.0036369036953067106,0.012250820535497102
4,71,1.0005082008792896,0.003306487583956521,0.010385849987053159
4,72,1.0005199537016045,0.002944958382114711,0.00859878988429092
4,73,1.0005306992249137,0.0025648992744601233,0.006926069601733344
4,74,1.0005403558571813,0.0021790978630932666,0.005401736543364487
4,75,1.0005488821649346,0.001799369943909214,0.004048738316104661
4,76,1.0005563179780645,0.0014369046443950448,0.0028848167772451802
4,77,1.0005625847494262,0.001101926829164109,0.001915610327951974
4,78,1.000567830416923,0.0008009513681372076,0.0011394423963786552
4,79,1.0005724128892517,0.0005357179199961116,0.0005412959306970903
4,80,1.0005765689572423,0.000310086954575863,0.0001042376167085993
4,81,1.0005798933116172,0.00013806405878907124,-0.0001925404231719229
4,82,1.0005819080790763,4.359293295910245e-5,-0.0003737850335272993
4,83,1.0005826922935221,5.030408245643916e-5,-0.0004826280451015539
4,84,1.0005827819825224,0.000170107703555773,-0.0005772613573489973
4,85,1.0005828336155067,0.0004010978676365437,-0.0007264061738158275
4,86,1.000583203951333,0.0007218436362348237,-0.0009870692352098379
4,87,1.0005830170161605,0.0010860007370049871,-0.0013910206364718218
4,88,1.0005829176215424,0.0014199651174508366,-0.0019285641158375997
4,89,1.0005809157437928,0.001622475196668793,-0.0025258365588729944
4,90,1.000579666452251,0.0015967570048857252,-0.0030874828374636357
4,91,1.0005771779981443,0.001231383245521108,-0.003435549426062191
4,92,1.0005670633790826,0.0005761254171524919,-0.00352992845128013
4,93,1.000603463438961,-0.0002969678101955,-0.0034777957924295366
4,94,1.0005781549084691,-0.0017897860926885099,-0.002702233135468993
4,95,1.0005401414278674,-0.0030478285023578847,-0.00226884598415866
4,96,1.0008597878596226,-0.00429271375679636,-0.0019765522661071545
4,97,1.0004589023229375,-0.009639528927252684,0.002587737862481243
4,98,0.9999397448645726,-0.014237418047648684,0.003087218995045244
4,99,1.0007689533672284,-0.010625566984337528,-0.0020793039404943237
4,100,1.0011530827692843,-0.001532292167939049,-0.0024956416818844927
4,101,0.9996604664556685,0.05207098510670149,-0.0005540124959718549
5,1,1.0008228022932155,7.503544327653507e-5,-7.964063404147902e-6
5,2,1.0008248699059648,0.00018808257247868276,-5.3449476401054845e-5
5,3,1.0008245113660281,0.000260826185141588,-0.00013429675482789114
5,4,1.0008245878229607,0.0003324319748211271,-0.00024466049015148717
5,5,1.0008246489127033,0.000405503709664706,-0.0003812600711091269
5,6,1.0008247773186432,0.0004809085904768021,-0.00054006910473801
5,7,1.0008250828617358,0.0005612045989534296,-0.0007174687321776338
5,8,1.0008254548399271,0.0006452852203608006,-0.0009111628095450618
5,9,1.0008258794883573,0.0007286686706215416,-0.0011160635232022528
5,10,1.000826391998144,0.0008037232563757504,-0.0013235452677554747
5,11,1.0008269993140988,0.0008594506722751651,-0.0015206956201292347
5,12,1.000827729916753,0.0008822156452604334,-0.0016908374733977487
5,13,1.0008286315045312,0.0008572218490390855,-0.0018137554644130447
5,14,1.0008297665635644,0.0007708250725980503,-0.0018682612209545237
5,15,1.00083121817309,0.0006132844365256581,-0.0018340929995823122
5,16,1.0008330833560664,0.0003808708056894178,-0.0016949762791409208
5,17,1.0008354520432685,7.63357888408185e-5,-0.0014394579819067212
5,18,1.0008383852796208,-0.00029260195885318996,-0.0010611967160571226
5,19,1.000841908445642,-0.0007161584858234558,-0.0005563669275832188
5,20,1.000846030786113,-0.001185441189367268,7.864256375518488e-5
5,21,1.0008507767381523,-0.0016940936465707586,0.0008501682650245262
5,22,1.000856197425051,-0.0022379498819578287,0.0017673929403811085
5,23,1.0008623417788347,-0.0028130259695743954,0.0028414281907364987
5,24,1.0008691776242764,-0.0034128384205024008,0.0040814738931632556
5,25,1.0008764906547658,-0.004026179588343574,0.0054912884519809765
5,26,1.0008837832584079,-0.0046362126861041585,0.007065002519927244
5,27,1.0008902459713398,-0.005221311237481191,0.008785772108249783
5,28,1.0008947999236766,-0.0057574251368031635,0.01062558282996739
5,29,1.0008962379257542,-0.006221258647944358,0.012548388287235878
5,30,1.0008933775799982,-0.006593331500989671,0.014513349448036126
5,31,1.0008852451123513,-0.0068602143041959305,0.016479649594648954
5,32,1.0008711780124804,-0.007015548872566537,0.018409420328947938
5,33,1.000850917279924,-0.007059893930889015,0.020270929193812338
5,34,1.0008245801184834,-0.006999654206094514,0.02203909983506074
5,35,1.0007926532237073,-0.006845526592880718,0.02369644066234494
5,36,1.0007558778207253,-0.006610807056311152,0.02523165176104139
5,37,1.000715212275057,-0.006309865726749884,0.026639423777826812