TITLE="CMs_NON_Orthogonal Re = 10000.0"
VARIABLES = X,Y,Rho,U,V
ZONE
I = 101	J = 101
F=POINT
1,1,1.0008963025854911,3.0309609880879138e-6,-3.5451896918791994e-6
1,2,1.000897704065586,7.559423383143539e-6,-2.2737121887614215e-5
1,3,1.000897590616939,7.902418715424305e-6,-4.723980037773834e-5
1,4,1.0008978854695434,8.983400831610582e-6,-7.472717810889343e-5
1,5,1.0008982424976973,1.0311507024326842e-5,-0.00010696126904036833
1,6,1.0008986388258323,1.1622888738794916e-5,-0.0001450525629352114
1,7,1.0008990975144356,1.2771357938774666e-5,-0.00018981754666629226
1,8,1.0008996355163347,1.3576322164828069e-5,-0.00024233728747464955
1,9,1.0009002479938178,1.372500812525364e-5,-0.00030365284436148764
1,10,1.0009009209568323,1.2740902354254719e-5,-0.00037486254820854513
1,11,1.0009016314899897,9.986846652508754e-6,-0.0004566270301904789
1,12,1.000902361312088,4.6680261127382814e-6,-0.0005491994596090356
1,13,1.0009031097524117,-4.1479119679980255e-6,-0.0006519278159539948
1,14,1.000903912086882,-1.749090289441572e-5,-0.000763288307471125
1,15,1.0009048575420294,-3.643476536910764e-5,-0.0008804864367385132
1,16,1.0009061036291276,-6.201946921308137e-5,-0.0009996013727138246
1,17,1.000907878074797,-9.517929544525105e-5,-0.0011153878771065768
1,18,1.000910466948397,-0.00013666927092148115,-0.0012215645501612534
1,19,1.0009141868003322,-0.00018701733805482715,-0.0013107803547468804
1,20,1.0009193477639096,-0.0002464783508194903,-0.0013749575323874729
1,21,1.0009262092753912,-0.0003150039624007159,-0.0014053513100634105
1,22,1.0009349344407008,-0.00039220222377707876,-0.0013929504947384728
1,23,1.0009455414968378,-0.000477306999946963,-0.001328718959470169
1,24,1.0009578568586803,-0.0005691487908934247,-0.001204202482687709
1,25,1.0009714713112965,-0.0006661570765151782,-0.001012064038137158
1,26,1.0009857102287383,-0.0007663939479239404,-0.0007469016329397486
1,27,1.0009996283310294,-0.0008676386657039794,-0.00040589569317646396
1,28,1.00101204477932,-0.0009675083691038984,1.0505448545757288e-5
1,29,1.0010216225601432,-0.0010636120285651234,0.0004982748984651847
1,30,1.0010269866471053,-0.0011537147335194315,0.001049679324344831
1,31,1.0010268633496628,-0.0012359096283998318,0.001653630070130587
1,32,1.0010202217468356,-0.0013087669048234133,0.0022962839993842165
1,33,1.001006393180557,-0.0013714247902871053,0.0029620442082556007
1,34,1.0009851483280672,-0.0014235885104053405,0.0036345927958149477
1,35,1.0009567183617953,-0.0014654560903051737,0.004297973854781005
1,36,1.0009217607639596,-0.0014975985760220622,0.004937414999642741
1,37,1.0008812804706435,-0.0015208320985189811,0.00553999328675873
1,38,1.0008365250196531,-0.0015360972268224115,0.006094961419532789
1,39,1.000788872369716,-0.0015443628564375286,0.006593915335767433
1,40,1.0007397281128325,-0.0015465534838822045,0.007030698691714242
1,41,1.0006904412269566,-0.0015435044041768149,0.00740124572502406
1,42,1.000642243795966,-0.0015359359757116159,0.007703280630208822
1,43,1.0005962124859527,-0.0015244471318516402,0.007936048514268991
1,44,1.0005532507025148,-0.0015095183428023389,0.008099992382403472
1,45,1.0005140837916822,-0.0014915245876117652,0.008196509033041765
1,46,1.0004792665810183,-0.0014707502263593606,0.008227699487081009
1,47,1.0004491938634226,-0.0014474080025860634,0.00819620292161006
1,48,1.0004241174128363,-0.0014216557983107794,0.008105049559035404
1,49,1.0004041583813974,-0.0013936149911749588,0.007957572231378994
1,50,1.0003893249892677,-0.001363384558214072,0.007757357612021571
1,51,1.0003795202921966,-0.0013310566364604355,0.007508208198635699
1,52,1.000374558252974,-0.0012967258933091258,0.007214178686918587
1,53,1.0003741651540454,-0.00126050248450208,0.0068795457585307095
1,54,1.0003779960745998,-0.0012225142919345376,0.0065089209408662144
1,55,1.000385630733721,-0.0011829192667294236,0.006107167485780999
1,56,1.0003965948837434,-0.001141895446229459,0.0056795974045018354
1,57,1.0004103521116552,-0.0010996582925895241,0.005231742553541579
1,58,1.0004263356783027,-0.0010564279360478616,0.00476968256923586
1,59,1.0004439369595641,-0.0010124659229534718,0.0042995183707744316
1,60,1.000462552545971,-0.0009679988218475884,0.0038279673044659458
1,61,1.0004815676569678,-0.0009233069012354477,0.003361278632806943
1,62,1.0005004202103036,-0.0008785649750252804,0.0029064205371459556
1,63,1.000518573821932,-0.000834044456011278,0.0024689766666521605
1,64,1.0005355960528457,-0.0007898042294223721,0.0020555897759938022
1,65,1.0005511133408402,-0.0007460986579670281,0.0016700387763154956
1,66,1.0005648929986388,-0.0007028391650931365,0.0013180877210885495
1,67,1.000576774778179,-0.0006602694715440963,0.001000544405423594
1,68,1.0005867516985265,-0.0006181865858908208,0.0007219688298964002
1,69,1.0005948754069178,-0.0005768441379691786,0.00047949622597939583
1,70,1.0006013075471265,-0.0005360496568478409,0.0002765269938788512
1,71,1.0006062378772704,-0.0004960120202724221,0.00010672915160794456
1,72,1.0006099662238221,-0.0004566293875902506,-2.7475394546414366e-5
1,73,1.0006127371003963,-0.0004182589447958569,-0.00013483006284040883
1,74,1.000614723196517,-0.0003809532390993017,-0.00021287921426863256
1,75,1.0006161415553354,-0.0003448116043015315,-0.00027149637890569087
1,76,1.0006174050247436,-0.0003099185190678837,-0.00030833913963521764
1,77,1.000618722857559,-0.0002770037450936016,-0.00033326523098351976
1,78,1.0006199011292518,-0.0002466959069519667,-0.0003410405947622312
1,79,1.0006206834860474,-0.00021920543454774172,-0.000338858835321385
1,80,1.000621246335684,-0.00019389443195065443,-0.00032038319855827923
1,81,1.0006220193535795,-0.0001700787645683742,-0.00029547990575477307
1,82,1.000623366012023,-0.00014702108677499406,-0.00026075174260771033
1,83,1.0006253285476485,-0.00012441785350227185,-0.00022902624257200874
1,84,1.0006278050833508,-0.00010189040949182913,-0.00019758187474231746
1,85,1.0006306948094115,-7.97324073236183e-5,-0.00018015209899902937
1,86,1.0006337374587377,-5.790325701098565e-5,-0.00017324702018799647
1,87,1.0006369599480538,-3.830192213734616e-5,-0.0001898865755676571
1,88,1.0006397528895765,-2.265903238716862e-5,-0.00021948283583186264
1,89,1.0006420319127671,-1.3080133821153035e-5,-0.0002659301311108331
1,90,1.0006437101326828,-1.4142031717159412e-5,-0.0003020744248654391
1,91,1.0006445691404644,-2.1495358567178865e-5,-0.0003173454382652638
1,92,1.0006544271191278,-5.4775365248868975e-5,-0.0002608389573869757
1,93,1.0006588465353388,-0.00011675137578783289,-6.349655892521407e-5
1,94,1.0006602249246668,-0.00019578791199557363,0.0003515515170317375
1,95,1.000660464826883,-0.0002817337593343269,0.0010252773083073395
1,96,1.0007192725502803,-0.00024749394133567347,0.0018061949520910912
1,97,1.0009038563726562,-0.0009949385566441612,0.0034723830307201997
1,98,1.0002197904569006,-0.0010625976145433715,0.00661842742095434
1,99,1.0006791779003168,0.0005882041660964188,0.007655051924885312
1,100,1.0018565127593928,-0.007687092196722204,0.016391304604699886
1,101,0.9964485875079052,0.026524494881086855,0.01399709138560753
2,1,1.0008946791892366,2.2658823469832422e-5,-7.382382917032562e-6
2,2,1.0008960544971812,4.914802035369609e-5,-4.621936015758818e-5
2,3,1.0008952932886634,5.739302777990098e-5,-0.00010706116425412568
2,4,1.00089510689723,6.636722759930771e-5,-0.00017926313175180457
2,5,1.0008949355618182,7.908592934331165e-5,-0.0002644399574236673
2,6,1.0008946627728772,9.418660379607116e-5,-0.00036631433034225877
2,7,1.000894341206156,0.00011181119175207607,-0.0004872601672659835
2,8,1.0008939559526777,0.00013250143395373851,-0.0006299682706214972
2,9,1.000893490365604,0.00015654290863532756,-0.0007970637610116521
2,10,1.000892929839703,0.00018380751556078555,-0.0009907812042361194
2,11,1.000892279054799,0.00021368946258389264,-0.0012119626933193729
2,12,1.000891577330696,0.00024511625744427665,-0.0014595940468614085
2,13,1.0008909190163064,0.00027659255023270444,-0.001729955184474633
2,14,1.0008904704602588,0.0003063092680368372,-0.0020164650927705975
2,15,1.0008904824137703,0.00033230495610580977,-0.0023093328803341744
2,16,1.000891286989685,0.0003526432893884128,-0.0025959852287423127
2,17,1.0008932803691506,0.0003655547503889016,-0.0028613113440402447
2,18,1.0008968879058604,0.000369500426998962,-0.0030884627966640266
2,19,1.0009025236426463,0.000363167413062281,-0.003259249876335889
2,20,1.0009105448953677,0.00034544352391965925,-0.0033548364390389575
2,21,1.000921210728876,0.0003154461310263311,-0.003356028189087073
2,22,1.0009346377723876,0.0002726580535408027,-0.0032439549523812
2,23,1.0009507569417733,0.0002171829289436368,-0.0030006466574182566
2,24,1.0009692650654567,0.0001500671323185257,-0.0026102001481913607
2,25,1.000989582430051,7.359240896663937e-5,-0.002059960621795029
2,26,1.0010108226289711,-8.577234353690797e-6,-0.0013420977814036041
2,27,1.001031797910437,-9.147611317610316e-5,-0.0004548447988975525
2,28,1.0010510658903002,-0.00016916827164041028,0.0005964040215442084
2,29,1.0010670264330457,-0.00023529000689756556,0.0017987898656071431
2,30,1.0010780542646687,-0.0002837289015652533,0.0031322136165419135
2,31,1.0010826612670896,-0.0003093276388514743,0.004570493659629354
2,32,1.001079655515406,-0.0003084753770304469,0.00608297610740819
2,33,1.0010682768444257,-0.00027945879816499157,0.0076366886088908605
2,34,1.0010482724586685,-0.00022251342185450072,0.0091983887368916
2,35,1.0010199120980205,-0.00013959989998627188,0.01073652075303879
2,36,1.0009839334687647,-3.3993601332644315e-5,0.012222587320253706
2,37,1.000941448482994,9.020549208701155e-5,0.013632134634699485
2,38,1.00089381746327,0.00022854643664299578,0.014945107138152648
2,39,1.0008425298415833,0.00037662159640880624,0.016145903731863986
2,40,1.0007890896178169,0.0005303509558385606,0.017223022246607586
2,41,1.000734934419539,0.0006861564278365417,0.018168612738528194
2,42,1.0006813698014259,0.0008410396245823891,0.01897785887963951
2,43,1.0006295399801843,0.0009925880196762504,0.019648410456611837
2,44,1.0005804058530265,0.0011389293015898428,0.020179810527409914
2,45,1.000534752115743,0.001278658154662868,0.020573008347360006
2,46,1.0004931888466277,0.0014107454579979312,0.02082997625152729
2,47,1.0004561757391128,0.001534448452906071,0.020953356258128646
2,48,1.0004240296328142,0.0016492193341152018,0.020946312463515596
2,49,1.0003969532506591,0.001754629562708865,0.02081228196274643
2,50,1.0003750382035717,0.0018502953099773548,0.020555076541687034
2,51,1.0003582932504964,0.0019358275820384077,0.02017866817897323
2,52,1.0003466377803345,0.0020107788752991625,0.019687562064841835
2,53,1.0003399300635667,0.00207462482080881,0.01908651721721264
2,54,1.000337948859028,0.002126733375076261,0.01838123895237084
2,55,1.0003404257219641,0.002166385158374993,0.017577891459936337
2,56,1.0003470129949168,0.002192767234208169,0.01668418951487751
2,57,1.0003573271325787,0.0022050416630694947,0.01570848739127188
2,58,1.0003709008602388,0.002202364139074348,0.014661385061819233
2,59,1.0003872473633166,0.0021840066669324395,0.013554074498925841
2,60,1.0004057932431327,0.0021493922041904783,0.012400625782432765
2,61,1.0004259758235488,0.0020982622042403916,0.011215154688344504
2,62,1.0004471514895403,0.0020307000933107084,0.01001504506027928
2,63,1.0004687383768036,0.0019473095702350052,0.00881641051863333
2,64,1.0004900913114736,0.0018491853009910669,0.007638671326684303
2,65,1.000510697371086,0.0017380374536629208,0.00649776764167244
2,66,1.0005300052800048,0.001616069327880874,0.005412738767295311
2,67,1.000547670832681,0.0014860119773467842,0.004396242882682687
2,68,1.000563328686225,0.001350891844371715,0.003463948743206114
2,69,1.0005768764788467,0.001213913588787382,0.002622159507712797
2,70,1.0005881843529263,0.0010782148134641626,0.0018807278611944864
2,71,1.000597387343076,0.0009468496518917131,0.001237879279155507
2,72,1.0006045592205577,0.0008223832567416735,0.0006967623202826111
2,73,1.0006100560166058,0.0007065429940199096,0.0002478455396093081
2,74,1.000614065370129,0.0006004525852774207,-0.00011089164657034692
2,75,1.0006168876000394,0.0005054496932194998,-0.0003938737934983186
2,76,1.0006187661785708,0.0004221495907236142,-0.0006062894706526903
2,77,1.0006203540932823,0.0003485784104685193,-0.0007655379589696168
2,78,1.000621887284105,0.00028093586086942187,-0.0008744453168800779
2,79,1.0006232519527305,0.00021746187011717692,-0.0009439728330152676
2,80,1.0006239842632871,0.00016059842767243522,-0.0009712692051423433
2,81,1.0006242275162593,0.00011493882431167472,-0.0009712843733317239
2,82,1.0006242422873766,8.436547966792683e-5,-0.000952702710915862
2,83,1.000624493145079,7.080726645319793e-5,-0.0009443747522377501
2,84,1.0006247827175234,7.447374219169636e-5,-0.0009631151198207921
2,85,1.0006250464183999,9.55044388606978e-5,-0.0010411316892235856
2,86,1.0006249526458797,0.00013144474817851714,-0.0011924732499578763
2,87,1.0006240646517994,0.00017585343841537446,-0.0014398162751915427
2,88,1.0006227885315375,0.00021534586495229106,-0.0017755284710652462
2,89,1.0006204984073337,0.00023176647272194368,-0.0021855459330527233
2,90,1.000618861138389,0.0002096713142152409,-0.0026227467675100065
2,91,1.0006209580912186,0.0001159899782445991,-0.0030184007802190765
2,92,1.0006274121903747,-7.613578858297853e-5,-0.0032735824474715066
2,93,1.0006544717664458,-0.0004481514056885344,-0.0032727852012467444
2,94,1.0006653844473012,-0.0009171269170513973,-0.0028418073170089248
2,95,1.0007227875369653,-0.001238068736191436,-0.002141934325207717
2,96,1.0007865728902816,-0.0023282448500926522,-0.00038931648288588976
2,97,1.000685972227206,-0.0037663899575699025,0.0020246781785111193
2,98,1.001439330133807,-0.0045031366731913755,0.003954606369648575
2,99,1.000342501414168,-0.010790346405889864,0.016144879197152313
2,100,0.9995613202810231,-0.012235676192797017,0.02178493276795204
2,101,1.0037084084705143,0.05151875411190835,0.005626232334280619
3,1,1.0008947426027335,4.2966649296181174e-5,-7.120829937962822e-6
3,2,1.0008968319084524,0.00010619762003687236,-4.985047109903009e-5
3,3,1.0008961729475387,0.0001363978969773854,-0.0001275986130742683
3,4,1.0008956205935793,0.00016037474872589928,-0.00023000348485777342
3,5,1.0008953662225302,0.0001903048146298644,-0.00035206682442029906
3,6,1.0008951003202067,0.0002259690505948193,-0.0004968835185874908
3,7,1.0008947277832032,0.0002661283110867478,-0.0006684716356235705
3,8,1.0008942829866996,0.0003107560755711048,-0.0008696725948380452
3,9,1.0008937492624466,0.0003590038287524958,-0.0011024976910658825
3,10,1.0008931216348238,0.00040843079414098744,-0.001367583764266385
3,11,1.0008924233324963,0.0004549969729624937,-0.0016626921080296476
3,12,1.0008917195411573,0.0004932677130423809,-0.0019820691107806246
3,13,1.0008911338191167,0.000516832495391949,-0.002315627304840338
3,14,1.0008908576563764,0.0005188862377063427,-0.002649298541610235
3,15,1.000891149954322,0.0004929133144711663,-0.0029654060705826143
3,16,1.0008923222613608,0.00043330761697897194,-0.00324404831962516
3,17,1.0008947106394133,0.0003357530185942135,-0.003464123222068916
3,18,1.000898642264192,0.0001972928870134494,-0.0036047026990022723
3,19,1.0009044030532015,1.617429457807712e-5,-0.0036455195244406826
3,20,1.0009122141479152,-0.00020832667919124784,-0.0035675156637298916
3,21,1.0009222133631144,-0.00047588821227469266,-0.003352718465680122
3,22,1.0009344376570453,-0.0007848197412826582,-0.0029846508273894154
3,23,1.0009487950163258,-0.0011314810428891895,-0.002448698868442909
3,24,1.0009650228324345,-0.0015096379233170616,-0.0017333813722635808
3,25,1.0009826357194864,-0.001910031245264532,-0.0008316185798075656
3,26,1.0010008802187675,-0.0023203963073681892,0.00025752360999506803
3,27,1.0010187162005408,-0.002726043627058165,0.0015277315988680446
3,28,1.0010348402135056,-0.0031109578807123612,0.0029646039580982467
3,29,1.0010477643351188,-0.0034592683373154973,0.00454603992593237
3,30,1.0010559487472097,-0.003756851020361154,0.006243244650343962
3,31,1.0010579767968428,-0.0039927624820825436,0.008022898307139318
3,32,1.001052729103865,-0.0041602076739566726,0.009849448018980822
3,33,1.0010395267973018,-0.004256870659282989,0.011687765602037263
3,34,1.0010182021850533,-0.00428460473543857,0.013505093057815708
3,35,1.0009891031551779,-0.004248640219375111,0.015272724881779996
3,36,1.0009530225905567,-0.004156534522238045,0.016966660588555286
3,37,1.0009110966289336,-0.004017094314385294,0.01856800147436266
3,38,1.0008646723551686,-0.003839429931545481,0.020062523964291673
3,39,1.0008151943892791,-0.003632236004728491,0.02144031687429068
3,40,1.0007640933775939,-0.003403313094143235,0.022694896272003176
3,41,1.0007127173229002,-0.003159312776230755,0.023822649956157047
3,42,1.0006622695789722,-0.002905653667966337,0.024821937336074802
3,43,1.0006137904368908,-0.0026465656344052996,0.025692643417370913
3,44,1.0005681353652722,-0.0023852084132053157,0.026435448661014136
3,45,1.0005259890070826,-0.0021238382991886993,0.02705157782910587
3,46,1.0004878641639248,-0.0018639859675564194,0.027542269552026807
3,47,1.0004541292272535,-0.0016066416604512428,0.02790869915117754
3,48,1.0004250131785908,-0.0013524227563871806,0.028151623981964313
3,49,1.0004006345437888,-0.0011017376028481251,0.0282714297513999
3,50,1.0003810055340674,-0.0008549220655093787,0.0282679345384404
3,51,1.0003660573282227,-0.0006123757927083133,0.02814051212813813
3,52,1.0003556423552942,-0.0003746660797499001,0.02788807278195147
3,53,1.000349554618338,-0.0001426385047671241,0.027509224898335894
3,54,1.0003475323032642,8.25151823795259e-5,0.02700249691381386
3,55,1.0003492730933146,0.00029917790751419175,0.026366489141724077
3,56,1.00035444028266,0.0005052918331514139,0.025600447410949898
3,57,1.0003626721613958,0.0006983315928690598,0.024704308806266676
3,58,1.0003735940877143,0.0008753729921919468,0.02367977005083412
3,59,1.0003868188006342,0.0010331506498324837,0.022530020174634263
3,60,1.000401965209343,0.0011682458962816277,0.021261449069408196
3,61,1.0004186445550445,0.0012772509699813157,0.01988267536791827
3,62,1.0004364858254677,0.0013570831492822927,0.01840701085197029
3,63,1.000455104525365,0.0014052313324295414,0.016850167629735305
3,64,1.000474136087078,0.0014201368167015783,0.015233574317283347
3,65,1.0004931911613417,0.0014014129871079584,0.013580003591151272
3,66,1.000511903227171,0.0013501500707391787,0.01191790847646973
3,67,1.0005298837414172,0.001268958677393634,0.01027432414470921
3,68,1.0005467813236226,0.0011620149336429315,0.008680648234381139
3,69,1.0005622565764078,0.0010347626840638742,0.0071626254961171315
3,70,1.0005760487478528,0.0008936573405158636,0.005748238250339053
3,71,1.0005879622425429,0.0007457181418795316,0.004455316478038344
3,72,1.0005978858305262,0.0005979759078398563,0.0033023623953638824
3,73,1.0006058284894548,0.00045654372449817473,0.002294474719232905
3,74,1.0006119393411956,0.00032626605392072224,0.0014372819372397833
3,75,1.0006164316338266,0.00021146862516715971,0.0007227449638592804
3,76,1.0006194462175875,0.0001157392099715907,0.00014591357030980707
3,77,1.000621344649636,3.8524957054200944e-5,-0.00031147600527782184
3,78,1.0006227284510802,-2.6689350214499675e-5,-0.0006619006000664543
3,79,1.000623985228147,-8.646600298972265e-5,-0.0009241283102156388
3,80,1.0006247874976844,-0.00013840889354861335,-0.0011030709921191861
3,81,1.0006246422654337,-0.00016991194798868486,-0.0012142021325582193
3,82,1.0006235273833741,-0.0001651777975117361,-0.0012751646292368064
3,83,1.000621912052558,-0.00011300719696240283,-0.0013280248867039639
3,84,1.0006202525045758,-9.704123995247381e-6,-0.0014161239717394476
3,85,1.0006186872221157,0.00014220365570520807,-0.0015925078669171834
3,86,1.0006170100297003,0.0003321362421134665,-0.001893058287643853
3,87,1.0006151351898251,0.0005333097250607214,-0.002342278199699336
3,88,1.000611884479361,0.0007080881142047068,-0.002923611195427767
3,89,1.0006090424032896,0.0008104706039186643,-0.0036017925789518287
3,90,1.0006062629390324,0.0007854574146335327,-0.004279240725781383
3,91,1.0006053366146994,0.0006009210906947006,-0.004869015594807624
3,92,1.0006110322949786,0.0001714300815228337,-0.005230673243401446
3,93,1.0006060134257442,-0.00047465048326278305,-0.005316516632205746
3,94,1.0006629463993055,-0.0012341130573171888,-0.005273306017215573
3,95,1.0006697060550662,-0.0025285901361313617,-0.004272967413081547
3,96,1.0005384987382542,-0.003598012107091536,-0.0032396580424290423
3,97,1.0009918635019095,-0.005189003697927883,-0.002893657004528913
3,98,1.0006181358563977,-0.012275943678432525,0.0035901766800483965
3,99,0.9994604450158916,-0.016917708173075814,0.005945945311292135
3,100,1.000519781453925,-0.0027467286600870978,-0.000629492624375984
3,101,1.0004367056001897,0.05517656285351155,-0.0019286227632278764
4,1,1.0008943235063292,6.714092730425215e-5,-8.336774281345436e-6
4,2,1.0008966307004385,0.0001728375749477275,-5.6495189888822453e-5
4,3,1.0008962869535853,0.00023755842942172733,-0.00014560026678281284
4,4,1.0008957712445659,0.0002875913542391558,-0.000268206423948454
4,5,1.0008953114622505,0.00034073706596034426,-0.00041733086517181493
4,6,1.0008950696545664,0.000403336670385122,-0.000590445206063567
4,7,1.0008948147601449,0.00047485506679248397,-0.0007900332399281705
4,8,1.0008944714832657,0.000553794994305406,-0.0010182361281628634
4,9,1.000894086234178,0.0006381462921546314,-0.001273939008015816
4,10,1.0008936740219907,0.0007235286053724698,-0.0015532538471800274
4,11,1.0008932714723655,0.0008030072622724571,-0.0018482152296355778
4,12,1.000892955080408,0.0008678543698608847,-0.002146513000432379
4,13,1.0008928457097737,0.0009086343122884268,-0.00243130776524959
4,14,1.0008931136401202,0.0009164661428782373,-0.002682659810310858
4,15,1.0008939687890168,0.0008841600771512994,-0.0028788293372935224
4,16,1.0008956425827626,0.0008068989418735699,-0.0029984656164093884
4,17,1.0008983612962672,0.0006822350389598298,-0.0030216774727963333
4,18,1.0009023246169555,0.0005094710666092617,-0.002931028538186216
4,19,1.0009076932722794,0.0002887995421777872,-0.0027109951251717036
4,20,1.0009145921019265,2.0707364597758123e-5,-0.002347581770493496
4,21,1.0009231160171383,-0.0002939654816056913,-0.0018273228009308277
4,22,1.0009333261715152,-0.000653212666704546,-0.0011375601688806104
4,23,1.0009452161696575,-0.0010525422186799308,-0.00026703547270624133
4,24,1.0009586457664081,-0.0014836380681510115,0.0007919863780301646
4,25,1.000973254558465,-0.001933546854075561,0.002041739476271775
4,26,1.0009883809130056,-0.002384760250802713,0.0034764803738911777
4,27,1.0010030189181887,-0.0028163208864838848,0.005081390360417597
4,28,1.0010158364620556,-0.003205820937718522,0.006832095447677444
4,29,1.001025284420753,-0.003531956533819956,0.008696293749992829
4,30,1.001029773623757,-0.0037770880768285353,0.010636009133631986
4,31,1.0010278987288574,-0.003929234831902532,0.012611226249446397
4,32,1.0010186270555639,-0.003983076281708459,0.014582850443344238
4,33,1.0010014395345805,-0.003939868516046852,0.016515776571517073
4,34,1.0009763615866714,-0.003806448022881198,0.018380302895149823
4,35,1.0009439385034757,-0.0035936994454517997,0.02015331477431802
4,36,1.0009051208140125,-0.00331485642288973,0.021817871188121146
4,37,1.0008611565168228,-0.0029839567657095676,0.023363027816246374
4,38,1.000813439321309,-0.0026146115919247833,0.024782516549878685
4,39,1.0007634173039768,-0.00221916525484865,0.026074175568494885
4,40,1.0007124753349332,-0.001808205674555426,0.027238517133903472
4,41,1.0006618995326906,-0.001390376167691913,0.028278315913631075
4,42,1.000612807218496,-0.0009723922829972065,0.02919738978358003
4,43,1.0005661613545391,-0.0005592051047184444,0.03000049522504872
4,44,1.000522732644548,-0.00015423352940718615,0.03069235491303078
4,45,1.0004831431651866,0.00024036403948050222,0.03127782109497841
4,46,1.0004478413682327,0.0006234240188804401,0.03176107761547325
4,47,1.0004171568843927,0.0009945198656413003,0.0321459839158996
4,48,1.000391275850698,0.0013537359958343822,0.032435368248964695
4,49,1.0003702964379786,0.0017014582543207195,0.03263147688125887
4,50,1.0003541993732885,0.002038196665141987,0.03273529961545868
4,51,1.0003428999112307,0.0023644156737245956,0.03274707844789862
4,52,1.00033621358753,0.0026803907700515095,0.03266564235855823
4,53,1.0003339041521704,0.002986058966854955,0.03248896316044018
4,54,1.0003356478034804,0.0032808954173886534,0.032213522712882324
4,55,1.000341078787288,0.003563773548648135,0.03183493913414132
4,56,1.0003497574606874,0.0038328660651033085,0.03134745221117069
4,57,1.0003612162536326,0.0040855284906985145,0.03074467447879049
4,58,1.0003749378348805,0.0043182611352607266,0.030019357081086995
4,59,1.0003904031464914,0.004526665975736851,0.029164320500313427
4,60,1.000407084238694,0.004705543760151198,0.02817272462109494
4,61,1.000424491215042,0.004849006682371862,0.02703914434077174
4,62,1.0004421783671722,0.004950800763105612,0.025760551044682785
4,63,1.0004597778004105,0.005004648442867742,0.02433724644984882
4,64,1.0004770084397543,0.00500483153898097,0.022774607128996833
4,65,1.0004936770632222,0.004946738721023226,0.021083177078616313
4,66,1.000509679714414,0.00482759296829367,0.019280958524918988
4,67,1.0005249555764852,0.004646989820849471,0.017391594522248078
4,68,1.0005394860278058,0.004407446958642115,0.01544685317066266
4,69,1.0005532188069,0.004114565060407368,0.01348189646231362
4,70,1.0005660989997784,0.003777029090907172,0.01153782868378645
4,71,1.0005779868161198,0.00340612004083192,0.009653939644017909
4,72,1.0005887423348647,0.003015037168246966,0.007870992399243092
4,73,1.0005981687266088,0.002617679625064417,0.006221446299682734
4,74,1.0006061780312345,0.0022274456245740125,0.004734202706774075
4,75,1.000612723335672,0.0018564562963550944,0.003425025401095437
4,76,1.000617821704745,0.0015154095199177103,0.0023049658394579033
4,77,1.0006214217414398,0.001211196436273657,0.0013716722789813192
4,78,1.0006238517597408,0.0009425664463533316,0.0006166543803518211
4,79,1.0006257591019385,0.0007012903467851096,1.973495141396027e-5
4,80,1.0006275638028033,0.0004846618879425891,-0.0004342528003067962
4,81,1.0006288128511653,0.0003074310716172981,-0.0007591780833196571
4,82,1.0006288975034103,0.0001998956577686626,-0.0009698420328987041
4,83,1.0006279049622018,0.00019212736392998172,-0.0011037969789214146
4,84,1.0006265650212074,0.00029852533754000355,-0.0012176506609899052
4,85,1.0006257875909548,0.0005140490205250009,-0.0013816807679528284
4,86,1.0006259898684327,0.0008075418020174187,-0.0016502611840069716
4,87,1.0006261500979445,0.0011201850804422068,-0.00204713403390382
4,88,1.0006268275038228,0.0013722607479838113,-0.002548934946057912
4,89,1.0006260820333026,0.0014718119931745992,-0.003073430219282658
4,90,1.000626914920615,0.0013465941458823277,-0.003528506105637069
4,91,1.0006276038957478,0.0009160816131977334,-0.0037564268056435716
4,92,1.000620648222725,0.0002501754073942574,-0.0037439539196246667
4,93,1.0006609467804317,-0.0005919514986527488,-0.003609232824600749
4,94,1.0006382755102685,-0.0020175856012472787,-0.0027840078826378493
4,95,1.0005987036412818,-0.0031902895702970507,-0.002319690410840861
4,96,1.0009241361677002,-0.004364481347416528,-0.001984559019640607
4,97,1.000524593087079,-0.00961556410492346,0.002596288119068094
4,98,0.9999990442776203,-0.014165076159532827,0.003093978827742051
4,99,1.0008318135363965,-0.010587706973876723,-0.002062805925625993
4,100,1.001216339671679,-0.001537136856587874,-0.0024834671116388462
4,101,0.9997206359904898,0.05206183018612723,-0.0005519547383820884
5,1,1.0008939512363026,9.268201792853606e-5,-9.211817355941344e-6
5,2,1.0008964178034339,0.00024604772423620345,-6.280684577175177e-5
5,3,1.000896047927041,0.0003491017992551913,-0.0001615660720327588
5,4,1.0008957224937889,0.00042997183573763005,-0.00029561811427981986
5,5,1.0008953054308014,0.0005076606901370115,-0.00045842593838508447
5,6,1.000894941035372,0.0005920331604788756,-0.0006449685865575002
5,7,1.0008947322996358,0.0006856400612520468,-0.0008520910360622797
5,8,1.000894498981881,0.000784565429144599,-0.0010786376398052703
5,9,1.0008941893245829,0.0008820780662570858,-0.0013200096642840837
5,10,1.0008938547553872,0.0009690219725274345,-0.0015669797394495147
5,11,1.0008935185571508,0.0010331910204744977,-0.0018058354108554144
5,12,1.0008932241558677,0.001060593305997229,-0.0020194101837085095
5,13,1.0008930548561277,0.0010375739037605683,-0.002187619355611437
5,14,1.0008931351116324,0.0009528066033560671,-0.002289911378790718
5,15,1.0008936255605765,0.0007986301956296314,-0.0023067218422009672
5,16,1.0008947098651624,0.0005712925133912042,-0.0022214003689386102
5,17,1.000896577741544,0.0002700588624008992,-0.0020198954398807003
5,18,1.0008994221597676,-0.00010434469654272632,-0.0016902783678043882
5,19,1.0009034493906925,-0.0005511236168499455,-0.0012204931640505913
5,20,1.0009089015561639,-0.0010698199348558503,-0.0005973404482401617
5,21,1.0009160605725367,-0.0016593424110557162,0.0001944536977729197
5,22,1.0009252110591642,-0.002315842009348609,0.0011704083268579424
5,23,1.0009365451729235,-0.0030302112592478355,0.0023438739474921704
5,24,1.0009500255027834,-0.0037861770354317413,0.0037216119320094697
5,25,1.0009652462695409,-0.004559792831474468,0.005300599398901164
5,26,1.0009813295822405,-0.0053206816961897125,0.007064962965581581
5,27,1.0009969181119622,-0.006034945457669204,0.008986141617540565
5,28,1.0010102727223167,-0.006669171524538963,0.011024266662079254
5,29,1.001019501247239,-0.007194644062072041,0.013132761106750813
5,30,1.0010228176815021,-0.007590723540438843,0.015262649686485052
5,31,1.0010188178053703,-0.00784669214478792,0.017368007603003662
5,32,1.00100663088541,-0.00796182367701178,0.019408867907101973
5,33,1.000986017303916,-0.00794400124465357,0.021354040941778975
5,34,1.0009573006215788,-0.007807427430390636,0.02318085601548231
5,35,1.0009213070759018,-0.007570087206559665,0.024875398856710137
5,36,1.0008791806786674,-0.007251405070995728,0.026430335510505935