TITLE="CMs_NON_Orthogonal Re = 10000.0"
VARIABLES = X,Y,Rho,U,V
ZONE
I = 101	J = 101
F=POINT
1,1,1.0009923762484005,2.203173207168349e-6,-2.942162741178316e-6
1,2,1.0009935197293753,5.998493445194635e-6,-1.8933334657957867e-5
1,3,1.0009934387875608,6.35460505676739e-6,-3.963491754776139e-5
1,4,1.0009937004199339,7.280933149222363e-6,-6.338080795070476e-5
1,5,1.0009939892311446,8.312329959853283e-6,-9.171475885581626e-5
1,6,1.0009942894387849,9.182669359003544e-6,-0.0001257010201362163
1,7,1.0009946244199743,9.66744770215995e-6,-0.00016617880758525118
1,8,1.0009950087897095,9.463923780511444e-6,-0.0002142476010616651
1,9,1.000995435940546,8.097669124385383e-6,-0.00027097723202601737
1,10,1.0009958902722706,4.88829080689359e-6,-0.0003375290026136769
1,11,1.0009963470501215,-1.0573800281874622e-6,-0.0004147057841420199
1,12,1.0009967831224889,-1.0848628270976151e-5,-0.0005029884883533304
1,13,1.00099718730347,-2.579632906729472e-5,-0.0006020528372582051
1,14,1.000997576254922,-4.7372418367563025e-5,-0.0007107679244128183
1,15,1.000998011742814,-7.714753317442326e-5,-0.0008267685390636705
1,16,1.0009986177421142,-0.00011669116042825584,-0.0009465282732007757
1,17,1.0009995892059722,-0.00016746325941112333,-0.0010651233826781555
1,18,1.0010011891856148,-0.00023069441006681675,-0.0011764834623973319
1,19,1.001003728751001,-0.0003072913820169442,-0.001273388805001266
1,20,1.0010075336479478,-0.00039775452117355207,-0.0013478526932776684
1,21,1.001012898970031,-0.0005021280241975834,-0.0013912552030940952
1,22,1.001020039950421,-0.0006199582578229632,-0.0013947648043791065
1,23,1.001029040846773,-0.0007502757569612304,-0.0013495681683588473
1,24,1.0010398085558787,-0.0008915847561790207,-0.0012473752662912733
1,25,1.001052031893311,-0.0010418829877340688,-0.001080831734919658
1,26,1.0010651532302914,-0.0011987078524637756,-0.0008441871869477829
1,27,1.001078357367405,-0.0013592295065569004,-0.0005338596285027473
1,28,1.001090590760881,-0.001520379656989697,-0.00014909084941214836
1,29,1.0011006187409868,-0.001679015736330683,0.00030766416833481785
1,30,1.001107121775545,-0.0018320972756983227,0.0008304736994818123
1,31,1.001108817815651,-0.0019768770615513904,0.0014100576972979207
1,32,1.0011045955011468,-0.0021110913430632625,0.002034160124808083
1,33,1.0010936376366788,-0.002233112690343204,0.0026883483294527486
1,34,1.0010755155312396,-0.0023420018260663185,0.0033569631407163107
1,35,1.0010502365806164,-0.002437456753311535,0.004024179555712455
1,36,1.0010182395677745,-0.0025196892815534592,0.0046748897934831305
1,37,1.0009803413212142,-0.002589279024378108,0.005295445644783279
1,38,1.000937649651106,-0.0026470286793001613,0.005874108095267306
1,39,1.0008914588088262,-0.002693843264621619,0.006401314587269001
1,40,1.0008431461197098,-0.0027306338270257713,0.0068696997028207755
1,41,1.0007940802197228,-0.0027582524275337424,0.007274004116016587
1,42,1.0007455505774079,-0.0027774495481736436,0.007610848063304573
1,43,1.000698716868503,-0.00278885529884404,0.007878480738793058
1,44,1.0006545808401546,-0.002792973573085982,0.008076493395783224
1,45,1.0006139716096911,-0.0027901902529414214,0.00820555870957803
1,46,1.000577546918278,-0.002780785763175993,0.008267197846992
1,47,1.000545797462768,-0.0027649546585664874,0.00826357917702073
1,48,1.0005190617700996,-0.0027428242000912583,0.008197384912174746
1,49,1.0004975350776124,-0.002714476527737559,0.008071678832235911
1,50,1.0004812878656584,-0.0026799669148168067,0.007889879348840464
1,51,1.0004702710704791,-0.002639345106205713,0.007655671901424383
1,52,1.0004643350353661,-0.0025926700482134858,0.007373082750764256
1,53,1.0004632279417038,-0.0025400301275299965,0.0070463901824522
1,54,1.0004666169434044,-0.0024815509673745025,0.006680298010666962
1,55,1.0004740795849845,-0.002417416713598075,0.006279774856804548
1,56,1.0004851320762649,-0.002347863895927328,0.005850347197889341
1,57,1.0004992144338714,-0.002273210415698858,0.005397752512525408
1,58,1.0005157324662741,-0.0021938205656781896,0.004928422862306967
1,59,1.000534036580436,-0.0021101595594533,0.004448756224170261
1,60,1.0005534837141483,-0.0020226994245945745,0.003965980260695536
1,61,1.00057340731306,-0.0019320414028401415,0.0034866906186469455
1,62,1.0005932022128508,-0.0018387045516536581,0.0030185404002080873
1,63,1.0006122793673913,-0.0017434006370182543,0.0025673970121041
1,64,1.000630171477441,-0.0016466035670573145,0.002140784522753853
1,65,1.0006464635807526,-0.0015491125170903116,0.0017424907272047979
1,66,1.0006609073741966,-0.0014512767126561446,0.0013794114209964947
1,67,1.000673322522317,-0.0013539465266739338,0.001051802870337002
1,68,1.000683713174543,-0.001257334292158579,0.0007656795558591513
1,69,1.000692134037991,-0.0011623000932425534,0.0005168455077438618
1,70,1.0006987746875013,-0.001069015029906687,0.00031052831401013605
1,71,1.0007038489672408,-0.0009781955176604907,0.0001382683494281781
1,72,1.0007077029034044,-0.0008900592734265019,4.614931716404865e-6
1,73,1.0007105856792933,-0.0008053774165352306,-0.00010181821340846698
1,74,1.0007126788704441,-0.0007243864691590991,-0.00017610961582142375
1,75,1.0007142261158832,-0.0006473813113744628,-0.0002311944529644293
1,76,1.0007156659367926,-0.0005745591743546174,-0.0002621919545570138
1,77,1.000717150185482,-0.0005067862044868613,-0.00028219685001690725
1,78,1.0007184320191629,-0.00044463764368794225,-0.0002832239334156202
1,79,1.0007192558143851,-0.0003882492292687508,-0.0002761278800240961
1,80,1.000719830132029,-0.0003368341309575989,-0.00025205118731012064
1,81,1.0007205562746389,-0.00028962959028201214,-0.00022478243376272314
1,82,1.0007217452322668,-0.00024567184805893117,-0.0001878591484212043
1,83,1.0007233902985775,-0.00020447571638466933,-0.00015778083393443312
1,84,1.0007253871937738,-0.00016542308023916928,-0.00012820502466084313
1,85,1.0007276248992625,-0.00012885120727047967,-0.00011666562955582111
1,86,1.000729857966265,-9.481572620074772e-5,-0.00011553591748743898
1,87,1.0007321282605341,-6.540288807290435e-5,-0.00014183191983854724
1,88,1.0007338948891458,-4.20849138713333e-5,-0.0001808967129792671
1,89,1.0007351788722227,-2.6751592129854902e-5,-0.0002418168795639872
1,90,1.000735829561299,-2.3386433965156093e-5,-0.00029394170543556005
1,91,1.000735752390421,-2.7195552053032035e-5,-0.0003321412307047732
1,92,1.0007448302399615,-5.8389665646603714e-5,-0.00030113871779149833
1,93,1.0007485939895133,-0.00011933667109648972,-0.0001332658571923931
1,94,1.000750180320928,-0.00020092141184967915,0.00025623475341489036
1,95,1.000750164237445,-0.0002901209198687744,0.000914452386428699
1,96,1.0008109687148234,-0.0002617724488952519,0.0016935640562952639
1,97,1.0009985690445764,-0.001020145058981111,0.003385096390157613
1,98,1.0003112624144548,-0.001085860967068221,0.006576966269035597
1,99,1.0007757658011722,0.0005668617540110772,0.00765429071682242
1,100,1.00195281154389,-0.007688409339530049,0.016409148066480823
1,101,0.9965364866123338,0.026525659867565884,0.013996888946179191
2,1,1.0009910269044227,1.9097850134535634e-5,-6.092530515850549e-6
2,2,1.0009921432311606,4.146400965231704e-5,-3.84046296168437e-5
2,3,1.0009915206662545,4.952311448138065e-5,-9.001042168371404e-5
2,4,1.0009913373061914,5.867571541063793e-5,-0.00015295695261951814
2,5,1.0009911098654476,7.123161068284755e-5,-0.0002288262136069198
2,6,1.0009907625222614,8.627656899867134e-5,-0.0003209197252125819
2,7,1.0009903414532795,0.00010413848323643075,-0.0004316162393959128
2,8,1.0009898278050848,0.00012547369834054609,-0.000563692013686546
2,9,1.0009891991663231,0.00015078726452200255,-0.0007198924387828828
2,10,1.0009884334188366,0.00018030953390530324,-0.0009026859219495147
2,11,1.000987524939563,0.00021391772427656908,-0.0011133711286920973
2,12,1.0009864976732992,0.00025110161417189985,-0.0013516470006483068
2,13,1.0009854243435772,0.0002909521788468294,-0.0016147428844542993
2,14,1.0009844434564232,0.00033220739729824595,-0.0018971397243925498
2,15,1.0009837749476884,0.00037335666354495285,-0.0021900614024029934
2,16,1.0009837228338587,0.0004127934915089108,-0.0024817054264088907
2,17,1.0009846654471222,0.0004489827190086013,-0.002757381893277388
2,18,1.0009870255412414,0.00048058870012018866,-0.0030003117946385462
2,19,1.0009912303017665,0.000506533787126586,-0.0031921878375113276
2,20,1.0009976614635807,0.0005259868304407236,-0.0033140870118261068
2,21,1.001006608699242,0.0005383267928035315,-0.003346969682959893
2,22,1.0010182239236556,0.0005431417346765748,-0.0032724072858488955
2,23,1.001032483733861,0.0005403213839632676,-0.0030730334327587127
2,24,1.0010491521913134,0.0005302565154924432,-0.0027333949821505598
2,25,1.0010677496155678,0.0005141061954161227,-0.002240775492008668
2,26,1.0010875251567124,0.0004940366838852285,-0.0015864493448675867
2,27,1.0011074518155454,0.0004733255547982281,-0.0007667816112820119
2,28,1.001126251297604,0.00045625604739856076,0.0002156374147908815
2,29,1.0011424632080934,0.0004477932058297916,0.0013514349770817487
2,30,1.0011545486192048,0.0004530782837302601,0.0026243010478768673
2,31,1.0011610281826344,0.00047681677408559046,0.004011666244059653
2,32,1.0011606296291817,0.000522671127205428,0.005485884730813829
2,33,1.0011524296296086,0.000592796111777755,0.007016059447340078
2,34,1.0011359520467034,0.0006876207082419105,0.008569967671396886
2,35,1.001111215672234,0.0008059043551387672,0.010116032548108535
2,36,1.001078713720328,0.0009450147472871854,0.01162486382212814
2,37,1.001039348417233,0.0011013360251457133,0.013070445056438144
2,38,1.0009943233682719,0.001270709537726248,0.01443074396785739
2,39,1.0009450315715611,0.0014488336459320208,0.01568796494068584
2,40,1.0008929387131682,0.0016315766648061078,0.01682839252464715
2,41,1.0008394941321976,0.0018151901422404542,0.017842047392212745
2,42,1.0007860534012702,0.0019964256209968633,0.018722177929301767
2,43,1.000733837340361,0.0021725751184066004,0.019464703178583655
2,44,1.0006838984286233,0.002341451752844222,0.020067690336229974
2,45,1.0006371194241621,0.00250133589559089,0.020530817221214834
2,46,1.0005942070250438,0.002650896096115475,0.020855020000580447
2,47,1.0005557123852327,0.0027891071059182515,0.021042053317422323
2,48,1.000522033937951,0.002915160936016462,0.02109438650199479
2,49,1.0004934464173798,0.003028393645820455,0.02101484014052642
2,50,1.0004701005383376,0.003128208897167228,0.020806769866246924
2,51,1.0004520545991147,0.0032140298337118532,0.020473701801561005
2,52,1.0004392641263777,0.003285242068853885,0.020019851945077775
2,53,1.000431616293814,0.003341179369142487,0.019449638628245912
2,54,1.0004289054118043,0.0033810881006644017,0.01876862099885053
2,55,1.0004308748859478,0.003404156316648295,0.017982706038011522
2,56,1.0004371748885914,0.0034095013636051973,0.017099638613251547
2,57,1.0004474204083809,0.003396254666885812,0.016127623839959478
2,58,1.0004611264723027,0.0033635717170729363,0.01507756100827474
2,59,1.0004777947775294,0.003310781599312653,0.013960662308886727
2,60,1.0004968200044326,0.0032374084439624686,0.012791704198075068
2,61,1.000517621115642,0.0031433782400850535,0.011585055493443023
2,62,1.000539509664757,0.0030290206140137664,0.010359350166051138
2,63,1.0005618828560487,0.002895296486475559,0.009131184879560604
2,64,1.0005840411181919,0.0027437328002686092,0.007921832024226872
2,65,1.000605455073389,0.0025765947655995327,0.006747791861691727
2,66,1.00062551686517,0.0023967111409408134,0.005630462844981848
2,67,1.0006438801010586,0.002207543151419296,0.004582801319394278
2,68,1.0006601308038015,0.002012873661182141,0.0036230784741948193
2,69,1.0006741885520911,0.0018166984281939335,0.002757203812443988
2,70,1.0006858911585663,0.001622917856557235,0.0019975454180194314
2,71,1.0006954168579993,0.0014353275313087922,0.001340935228937271
2,72,1.0007028275759975,0.0012570612280687287,0.0007927054523648234
2,73,1.0007085482770344,0.001090263463677203,0.0003409264208172696
2,74,1.0007127338223754,0.0009364527889762431,-1.4406537897992968e-5
2,75,1.0007157173063153,0.0007974205804765007,-0.00029085856258528355
2,76,1.0007177309223851,0.0006739882708838912,-0.0004920052946461904
2,77,1.0007194773245358,0.0005641898745234797,-0.0006392015358210573
2,78,1.000721081531618,0.0004644312443805472,-0.0007335907702131562
2,79,1.0007223957580302,0.0003734051813584861,-0.0007904888253649436
2,80,1.0007229239995932,0.0002936643286872149,-0.0008058498395152844
2,81,1.0007229042544332,0.00022925484550016944,-0.0007997791906475879
2,82,1.0007225648693452,0.00018317392499270818,-0.0007791531944621135
2,83,1.0007223735465995,0.00015660724531200656,-0.0007768278297813231
2,84,1.0007220440759472,0.00014928966217537187,-0.0008060859761823254
2,85,1.000721528546725,0.00016096284261441168,-0.0009021079284814039
2,86,1.0007204065506259,0.00018901307610059122,-0.0010740638494362578
2,87,1.0007183166532774,0.0002276624879258014,-0.0013474463766926105
2,88,1.000715635989017,0.000264745807630561,-0.0017107545572701054
2,89,1.000711843227293,0.0002831030608953852,-0.0021558752488847937
2,90,1.000708695256891,0.00026690341362030595,-0.0026344371166526293
2,91,1.0007092162342772,0.00018123396028718933,-0.003083206455280354
2,92,1.0007143787304302,-4.809964287831381e-6,-0.003397925957363015
2,93,1.0007408230962611,-0.00037940890709593084,-0.0034585267265999408
2,94,1.00075210022408,-0.0008622657994864798,-0.003076080027400914
2,95,1.0008121937576426,-0.0012139183029900762,-0.0023997326621331126
2,96,1.0008788070493893,-0.0023483885582743177,-0.0006227618414585958
2,97,1.0007811847525272,-0.0038299547429128194,0.0018536798233308614
2,98,1.001538756024253,-0.0045990765725649205,0.0038867653472058786
2,99,1.0004405881977716,-0.010836051485566881,0.016149060442430335
2,100,0.9996484678274222,-0.012218400658318217,0.021795566959585833
2,101,1.003798820353744,0.05153134437332114,0.005626579594747293
3,1,1.0009910720905992,3.529787088158907e-5,-5.949335360190337e-6
3,2,1.0009928054227504,8.892893804593562e-5,-4.205888532629535e-5
3,3,1.0009922794948987,0.00011726906940934091,-0.00010931938893189837
3,4,1.0009917899838159,0.00014141602047161562,-0.0002004162219815242
3,5,1.0009914804467555,0.00017061175629326855,-0.00031147691045831024
3,6,1.0009911264073994,0.00020494608421189176,-0.0004451244867397162
3,7,1.0009906561014743,0.0002436686502972363,-0.0006050705487657735
3,8,1.0009900864474732,0.00028673855089580047,-0.000794326933386848
3,9,1.0009893901611548,0.0003332670628453078,-0.0010152144944512
3,10,1.000988552446893,0.0003809360198906698,-0.0012688251910631667
3,11,1.0009875843298548,0.0004259219371473581,-0.0015536747592123643
3,12,1.000986534470439,0.0004629491876835033,-0.0018650733823317193
3,13,1.0009855048284662,0.00048553819741378474,-0.0021942091612850707
3,14,1.0009846621923741,0.0004864493156816052,-0.0025282340988111314
3,15,1.000984242322515,0.00045831750491121974,-0.0028503627069140247
3,16,1.0009845414735368,0.0003943750798361766,-0.0031410197224453675
3,17,1.0009858939911924,0.00028909463139573354,-0.003378865951720369
3,18,1.0009886403223154,0.0001385915423021578,-0.003542384447990821
3,19,1.000993090704087,-5.927905147118913e-5,-0.003610788594886225
3,20,1.0009994941906164,-0.0003050539655067361,-0.0035649464207273855
3,21,1.0010080149435527,-0.000597847032321285,-0.0033874612675119024
3,22,1.0010187166756197,-0.0009353932695826324,-0.003062925706740075
3,23,1.0010315455168364,-0.0013138420815570673,-0.0025778705148216986
3,24,1.0010463037994712,-0.0017273335378644834,-0.0019214375942440665
3,25,1.001062609000018,-0.0021675470487472494,-0.0010861537077249998
3,26,1.0010798478811558,-0.0026234825888056673,-6.937267197313908e-5
3,27,1.0010971442147385,-0.003081685410893792,0.001125590541952767
3,28,1.0011133581260998,-0.003526978511899814,0.002488335532333256
3,29,1.001127132034057,-0.003943634728352102,0.0040012173494124335
3,30,1.0011369887421688,-0.004316815725332517,0.005639734088550717
3,31,1.0011414806581078,-0.004634026480851287,0.007374087918025131
3,32,1.001139358824085,-0.00488628630442489,0.00917109451685399
3,33,1.0011297317132062,-0.005068778973532418,0.01099666865723802
3,34,1.0011121694876468,-0.00518088253671971,0.0128178745144407
3,35,1.001086746785133,-0.0052256532111675975,0.014604830259707177
3,36,1.0010540092845357,-0.005208944406670405,0.0163316983598929
3,37,1.0010148965616745,-0.005138386137671131,0.017977369169926607
3,38,1.0009706243431957,-0.005022408775592925,0.019525316896961444
3,39,1.000922571283649,-0.004869439042444114,0.02096340097130708
3,40,1.0008721623664738,-0.0046873151626529354,0.022283125621116832
3,41,1.0008207869860108,-0.004482927076365996,0.023479120306509896
3,42,1.0007697254855858,-0.004262042184673589,0.024548284537749068
3,43,1.000720116008116,-0.004029280231672408,0.025489303882694752
3,44,1.000672923703953,-0.0037881824860413237,0.026301919940170986
3,45,1.0006289438858773,-0.003541348198548852,0.026986612598823012
3,46,1.00058879684947,-0.003290595074235281,0.02754406110338696
3,47,1.0005529486729976,-0.0030371397569838765,0.02797499380293066
3,48,1.0005217160539823,-0.002781765563072809,0.02827983392757634
3,49,1.000495291280998,-0.0025249948104775917,0.028458670448300485
3,50,1.000473748724447,-0.002267233051409656,0.028511080369455294
3,51,1.0004570671886024,-0.0020089206525757543,0.028436167434468366
3,52,1.0004451361145774,-0.0017506473320630786,0.028232589386366646
3,53,1.0004377729036782,-0.0014932832643039132,0.027898611596956262
3,54,1.000434730837027,-0.0012380591680811166,0.027432424613065467
3,55,1.0004357105516022,-0.000986671260638033,0.02683214191971235
3,56,1.0004403733020444,-0.0007413089308526732,0.026096559096651834
3,57,1.0004483449284964,-0.0005047114653746967,0.025224962442262418
3,58,1.00045923770806,-0.00028010701133201023,0.024218542477294144
3,59,1.0004726425868062,-7.118358139551177e-5,0.023079742212615485
3,60,1.0004881611096568,0.00011810553488450618,0.021814575461699872
3,61,1.0005053791833722,0.00028368901828054364,0.020431010080923028
3,62,1.0005239093374998,0.00042172588943676585,0.018942445847514453
3,63,1.000543341050809,0.0005288575946311785,0.017364329352743887
3,64,1.0005632945252187,0.0006026578453084193,0.015719051973283077
3,65,1.0005833515311733,0.0006418785750280649,0.014029764614119863
3,66,1.0006031270221722,0.0006468489016378471,0.012327044452885677
3,67,1.0006221968450564,0.0006195445004944958,0.010638944971835578
3,68,1.000640182733874,0.0005637079839258638,0.009000057180174739
3,69,1.0006567067120826,0.00048454158895070413,0.007437332057104575
3,70,1.0006714802264915,0.0003884809219365771,0.005982414762373518
3,71,1.0006842776088005,0.0002827075070543856,0.004653731798517568
3,72,1.0006949641284844,0.00017450264601455307,0.003473087149904732
3,73,1.000703551788673,7.018059287847618e-5,0.002444757247146233
3,74,1.000710197959139,-2.517540909010442e-5,0.0015766589608476485
3,75,1.0007151115313708,-0.000106696553376062,0.0008584682445013223
3,76,1.0007184063905408,-0.00017015393745676427,0.0002864997383748831
3,77,1.0007204918858534,-0.00021583879402706918,-0.00016168301934789373
3,78,1.0007219830648166,-0.0002501229199594232,-0.0004985310748915762
3,79,1.0007232163091178,-0.00027887878626332613,-0.000747501637965613
3,80,1.000723778952939,-0.00029884816538844886,-0.0009133636585695522
3,81,1.0007232328312319,-0.00029743028585655187,-0.001017216571614256
3,82,1.0007216468901223,-0.00025985257872777656,-0.0010773122616682806
3,83,1.0007195625170233,-0.000176299196707508,-0.0011407437334644418
3,84,1.0007173831931837,-4.438059423813036e-5,-0.0012485705674249164
3,85,1.0007151623578272,0.00013194120652740282,-0.0014550643564342173
3,86,1.000712582217072,0.00034109686531447,-0.001790100462550418
3,87,1.0007095290992658,0.0005574677647194645,-0.0022776850297979217
3,88,1.0007048985705145,0.0007468456345768598,-0.0028971170469900393
3,89,1.0007006004274652,0.000866565034171821,-0.0036173832662612527
3,90,1.0006963427872222,0.0008624500974933893,-0.004341017179960751
3,91,1.0006942472431548,0.0006977761547237236,-0.004985299270472082
3,92,1.0006987997640062,0.0002776765960811802,-0.0054008360749433415
3,93,1.0006932923602392,-0.00037816423936651815,-0.0055352948258333
3,94,1.0007509601318434,-0.0011764790443347117,-0.005518038302727953
3,95,1.000759105696174,-0.0025402537812243223,-0.0045099244574401814
3,96,1.0006301351864646,-0.0036969265917863254,-0.0034339862373692345
3,97,1.0010840536022478,-0.0053737859724162385,-0.002997342734338226
3,98,1.0007094913899637,-0.012459982014538754,0.003553202308674759
3,99,0.9995432740915186,-0.016993155422304316,0.005922152281441884
3,100,1.0006084432733109,-0.002744092543647763,-0.0006309812129218245
3,101,1.0005291985813276,0.05518992943973913,-0.0019258706653691718
4,1,1.0009906948849474,5.6466430780041566e-5,-7.2032462235352e-6
4,2,1.0009926428886633,0.00014730521096483883,-4.918782490496213e-5
4,3,1.0009923693935259,0.00020798465695086532,-0.00012864172731061126
4,4,1.0009919104700717,0.0002583213306931974,-0.00024042579236167186
4,5,1.0009914348341304,0.0003115448290500945,-0.0003788478560916232
4,6,1.0009911050135605,0.00037344405232987786,-0.0005416486284654551
4,7,1.0009907439794394,0.00044446615801268846,-0.0007309766829878482
4,8,1.0009902822338763,0.0005238117263959011,-0.0009489982487248874
4,9,1.000989745145654,0.0006099316032912923,-0.0011951099044457756
4,10,1.000989138371476,0.0006992120749641343,-0.0014660861623733907
4,11,1.0009884922787677,0.000785789884139175,-0.0017548248142122067
4,12,1.000987874271819,0.0008619982269402086,-0.0020500332754243558
4,13,1.0009873923460255,0.0009191140624672875,-0.0023358822129849106
4,14,1.000987200380589,0.0009483928886488538,-0.0025931008530504936
4,15,1.0009874916761707,0.0009421973429439554,-0.002800074460763468
4,16,1.0009884845223542,0.0008949483181223308,-0.002934989203775043
4,17,1.0009903982353847,0.0008036004785452737,-0.0029772346843707385
4,18,1.0009934295023828,0.00066748799041555,-0.0029088855944011545
4,19,1.0009977336383902,0.0004876444073841657,-0.002714713064411007
4,20,1.001003420198715,0.00026594839377123606,-0.0023820025210018326
4,21,1.0010105586101539,4.546225657718287e-6,-0.0018993718038112287
4,22,1.0010191856106756,-0.000294093930050713,-0.0012563602073474098
4,23,1.001029293748069,-0.0006264214362954782,-0.00044319527365285766
4,24,1.001040788839972,-0.0009865931349036419,0.0005478851360745508
4,25,1.0010534187189377,-0.0013653204218091579,0.0017210346540091073
4,26,1.0010666929331014,-0.0017492824799320633,0.003074331552634481
4,27,1.0010798230479299,-0.0021214326677135987,0.0045981752770050495
4,28,1.001091705590461,-0.002462253669344992,0.006274051754900672
4,29,1.0011009809206426,-0.0027517909662486168,0.008075170372669893
4,30,1.0011061637708072,-0.0029720476511598507,0.00996792289845388
4,31,1.0011058383099507,-0.0031091954825884735,0.01191493692306718
4,32,1.0010988494605921,-0.003155078386162976,0.013877951722175031
4,33,1.0010844679970634,-0.0031077404918065303,0.015821038400676418
4,34,1.0010624645125334,-0.0029709851570956887,0.01771249180978094
4,35,1.0010331243615698,-0.0027532311920999077,0.01952643923115153
4,36,1.0009971706524152,-0.00246600560738244,0.021242930555806016
4,37,1.000955674415955,-0.0021224181943610343,0.0228480297498031
4,38,1.0009099159025518,-0.0017358354069419524,0.02433277914637747
4,39,1.0008612874602487,-0.0013188860460831653,0.02569267309079366
4,40,1.0008111730794471,-0.0008828057569214319,0.026926336105041238
4,41,1.0007608963065597,-0.00043709797497870455,0.028035026893151183
4,42,1.0007116438487298,1.0569656350268364e-5,0.02902145517202823
4,43,1.0006644628399313,0.00045429010691381704,0.029889551602128434
4,44,1.0006202197949727,0.0008897420412403529,0.030643517768235998
4,45,1.0005796303451227,0.001313951488589957,0.03128786567496561
4,46,1.00054323560003,0.0017250413247825776,0.0318266502034962
4,47,1.0005114463170237,0.0021219766076898306,0.032263704066390175
4,48,1.0004845229733734,0.0025043346601847103,0.032601970088357905
4,49,1.0004626226680298,0.002872087229248466,0.03284385612009456
4,50,1.0004457763140169,0.0032254147695670874,0.03299060075965858
4,51,1.0004339328475638,0.003564526109855335,0.0330426978169275
4,52,1.0004269325668884,0.003889507906449107,0.03299926363940179
4,53,1.0004245474659814,0.004200164115283452,0.032858512693608656
4,54,1.0004264535585927,0.004495887413841114,0.03261714430391552
4,55,1.0004322687637903,0.004775505444098027,0.0322708854004663
4,56,1.0004415297807685,0.005037177036478587,0.031813987695244614
4,57,1.0004537303138832,0.0052782551161889785,0.031239883795726214
4,58,1.0004683096739102,0.0054952436709446726,0.030540985461160186
4,59,1.0004846933965543,0.005683725853125242,0.029709496011834303
4,60,1.000502299575037,0.0058384602285089515,0.02873780178814556
4,61,1.0005205787739826,0.005953462743421593,0.027619379695283712
4,62,1.0005390378721741,0.006022345407850082,0.026350109184550552
4,63,1.0005572654341326,0.00603864288342614,0.024928916695760913
4,64,1.000574961730896,0.0059964467759958855,0.023360222314081355
4,65,1.000591926052035,0.005890971492840095,0.021653450370631582
4,66,1.0006080788271683,0.0057193749921771045,0.019826558859087056
4,67,1.0006233900143315,0.005481345225457291,0.017903036337464984
4,68,1.0006378971006524,0.00517975627528384,0.015916285446577468
4,69,1.0006515915474767,0.004820864270105537,0.013902689369798058
4,70,1.0006644710055357,0.004414358029389258,0.01190681424838409
4,71,1.0006764140474231,0.003972830324257489,0.009970132499881131
4,72,1.0006872963370508,0.003511041275248288,0.008137865754044099
4,73,1.0006969009702447,0.0030445181203847447,0.006444309043096955
4,74,1.0007051363136141,0.002588214463376511,0.004922170903831114
4,75,1.000711926576769,0.002155844566602704,0.0035872866243800267
4,76,1.0007172404219309,0.0017599366204187838,0.002453038943115218
4,77,1.0007209689409544,0.001408989776267882,0.0015147722445804567
4,78,1.000723462031021,0.0011024974157468539,0.000763531080153891
4,79,1.0007253593424017,0.000832563447792174,0.00017439777754128094
4,80,1.000726977675764,0.0005972562413972608,-0.00026859182029245293
4,81,1.0007277737697384,0.00041190074503596764,-0.0005842541208088723
4,82,1.0007272339103175,0.00030574058156673014,-0.0007901046903866775
4,83,1.0007256223519756,0.0003056295522326581,-0.0009308738108165869
4,84,1.0007237494965655,0.00042140368265613934,-0.0010646407546330073
4,85,1.0007224099740388,0.0006432644845080608,-0.0012628700117105417
4,86,1.000721812745608,0.0009372851110350053,-0.0015732612819922684
4,87,1.0007208572626543,0.0012468272270845023,-0.0020150580279022444
4,88,1.000720164265688,0.001498606815033312,-0.0025583017072476734
4,89,1.000717960135362,0.0016067092563321478,-0.0031216269361494667
4,90,1.0007174723924233,0.0014988707832430633,-0.00361237128543979
4,91,1.0007167349032806,0.0010850029484569892,-0.003873597731884065
4,92,1.0007087822559249,0.00042059952958639147,-0.003889283091548473
4,93,1.0007480587937871,-0.0004494821816147882,-0.003769380444626033
4,94,1.0007243898464753,-0.001938889488551951,-0.00294057796656217
4,95,1.0006861479727212,-0.0032080498505511223,-0.0024608947181742904
4,96,1.0010108651314282,-0.004507082786405121,-0.002082355133464061
4,97,1.0006102544234308,-0.009834232614479476,0.0025222184245313303
4,98,1.0000821903571862,-0.014346182058007119,0.0030260446833750895
4,99,1.0009193392757205,-0.01068969768166723,-0.0020816798205298393
4,100,1.0013074627139604,-0.00153811128958407,-0.0024744923640195216
4,101,0.9998078175424444,0.052082443276778426,-0.0005515774279763193
5,1,1.000990391824682,7.82201791504442e-5,-8.128951369946336e-6
5,2,1.0009925185293624,0.00021194394154448108,-5.5867560054990515e-5
5,3,1.0009922170016827,0.0003090342573292865,-0.0001458676622370715
5,4,1.0009919089857189,0.00038960852445444407,-0.00027050470163234215
5,5,1.0009914771986455,0.0004672729904879385,-0.00042395246401075176
5,6,1.000991058683643,0.000550686802375299,-0.0006015938242504374
5,7,1.0009907485343876,0.0006429138052398783,-0.0008005253112160853
5,8,1.0009903957127106,0.0007409085258071772,-0.0010196180456597717
5,9,1.000989946148093,0.0008384673640922191,-0.0012546934087267736
5,10,1.0009894324728998,0.0009268777164164314,-0.0014972327570037672
5,11,1.00098887066585,0.0009945028733099096,-0.0017342569541274493
5,12,1.000988296304345,0.0010276768795068273,-0.0019491609860553968
5,13,1.0009877783411687,0.0010123612705687218,-0.002122158255133902
5,14,1.000987421752208,0.0009359663254221608,-0.0022325106074356353
5,15,1.000987367798312,0.0007889438746140772,-0.002260097344731506
5,16,1.0009877864475119,0.0005656748658106926,-0.002187647330042147
5,17,1.0009888624197314,0.0002643559005685932,-0.0020011012277532402
5,18,1.0009907877126831,-0.00011404503773544203,-0.0016896503142895805
5,19,1.0009937639785746,-0.0005672678243481588,-0.0012437619107451114
5,20,1.000998020706134,-0.0010929038023131503,-0.0006536959087456098
5,21,1.001003829095906,-0.0016885198955668135,9.232839508516416e-5
5,22,1.001011488035325,-0.00235049548659441,0.0010076185899032088
5,23,1.0010212562995158,-0.0030719257702839097,0.0021055852041030705
5,24,1.0010332323052389,-0.003840418773350532,0.0033959285789849454
5,25,1.0010472138867648,-0.0046367385435007085,0.00488119609302299
5,26,1.0010625729048306,-0.00543493997644116,0.006552992616853143
5,27,1.0010782015161979,-0.006204202400623241,0.008390772595286563
5,28,1.0010925508433353,-0.00691207253230709,0.010361897985627434
5,29,1.0011038025601895,-0.007528426609541001,0.012424956383944077
5,30,1.0011101041848147,-0.008029168286100405,0.014533561767045372
5,31,1.0011098497032536,-0.008398801806340575,0.016641687425928094
5,32,1.001101875405711,-0.008631384471356942,0.018707207726894035
5,33,1.0010856043377587,-0.008729922807550233,0.020695330588920927
5,34,1.0010610371672382,-0.008704613297947637,0.022579253536099096
5,35,1.0010287211091142,-0.00857054142983636,0.02434085716999147
5,36,1.000989596743457,-0.008345339672436789,0.025969100474830406
5,37,1.0009449082902493,-0.008047196836801699,0.027459427608892233