TITLE="CMs_NON_Orthogonal Re = 10000.0"
VARIABLES = X,Y,Rho,U,V
ZONE
I = 101	J = 101
F=POINT
1,1,1.0009643652284081,1.5812752318114216e-6,-2.7521786027437713e-6
1,2,1.0009654301006716,5.125304424669153e-6,-1.7776213411655353e-5
1,3,1.0009653556779945,5.368442392649221e-6,-3.7256387703528384e-5
1,4,1.0009656056749758,6.030016494491191e-6,-5.9746855143475075e-5
1,5,1.0009658723634263,6.605094313540817e-6,-8.672060454924314e-5
1,6,1.0009661433106545,6.751699560276501e-6,-0.00011923050537790862
1,7,1.000966442068421,6.110567036107167e-6,-0.00015810905171652505
1,8,1.000966782140069,4.1857591240719e-6,-0.00020446553660204378
1,9,1.0009671566011977,2.4934153928147e-7,-0.0002593700408579798
1,10,1.0009675497299695,-6.690224060639306e-6,-0.0003240153234101387
1,11,1.000967936110598,-1.7892536994523136e-5,-0.00039925802147948886
1,12,1.0009682906152764,-3.4878467697665116e-5,-0.00048568621318384003
1,13,1.0009685980028584,-5.940263663124695e-5,-0.0005831255736066236
1,14,1.0009688679300377,-9.339340124918418e-5,-0.0006906584909366209
1,15,1.0009691513360466,-0.0001388667503996143,-0.0008061768777823692
1,16,1.0009695577694007,-0.00019779561916686886,-0.0009264537840273575
1,17,1.0009702656846664,-0.0002719692238752835,-0.0010468735040924497
1,18,1.000971522772277,-0.00036284026280607303,-0.0011616661773047015
1,19,1.0009736298721177,-0.0004714037122094341,-0.0012638764209740735
1,20,1.0009769117775298,-0.0005980935932895791,-0.001345738338182514
1,21,1.0009816749800435,-0.0007427240490234352,-0.001398801999634968
1,22,1.0009881602356607,-0.0009044489088668162,-0.0014143575869435719
1,23,1.0009964916400425,-0.0010817587655327083,-0.0013836607198919103
1,24,1.0010066295018372,-0.0012724962752063628,-0.0012984205295705964
1,25,1.0010183281067786,-0.0014739116811885561,-0.0011511828154467504
1,26,1.0010311053070813,-0.0016827481332768986,-0.0009359556877098994
1,27,1.0010442276012608,-0.0018953739820472247,-0.0006487435448700491
1,28,1.0010567226471183,-0.00210794516994675,-0.00028818535254796667
1,29,1.0010674266237938,-0.002316596775652176,0.00014403017739460507
1,30,1.0010750699558664,-0.0025176382468686553,0.0006428512417884124
1,31,1.0010783904963911,-0.0027077573712176433,0.0011998985604105082
1,32,1.0010762609745298,-0.0028842235228807183,0.0018037371882436853
1,33,1.0010678113101723,-0.003045061251889341,0.0024405725503261213
1,34,1.001052528067181,-0.0031891168550346265,0.0030951614646419485
1,35,1.0010303122287336,-0.0033160035620515738,0.0037518586351461057
1,36,1.0010014879658762,-0.003425955938692403,0.004395531430954562
1,37,1.0009667619781504,-0.003519655798141957,0.0050123296004899705
1,38,1.0009271467436058,-0.003598059580172095,0.005590195391103553
1,39,1.000883861396128,-0.003662254769535121,0.006119169306516923
1,40,1.000838230398872,-0.0037133446430737175,0.006591472486941355
1,41,1.0007915896187072,-0.0037523696847974663,0.007001438022736445
1,42,1.0007452129375451,-0.003780254546188912,0.007345328765009145
1,43,1.000700256569087,-0.0037977832716203992,0.007621082889815302
1,44,1.0006577277222306,-0.003805589475686914,0.007828055325817856
1,45,1.000618465276836,-0.0038041639444092775,0.007966731583938338
1,46,1.0005831398003306,-0.0037938673252243724,0.008038517583398111
1,47,1.0005522544693568,-0.003774952277595542,0.008045497516770073
1,48,1.000526161026444,-0.003747584185014728,0.007990328139604172
1,49,1.0005050658391077,-0.0037118674828647007,0.00787605229642999
1,50,1.0004890515872735,-0.0036678665591079866,0.007706113301404104
1,51,1.0004780792123962,-0.0036156322297689917,0.00748419588162605
1,52,1.0004720120040134,-0.0035552185809619836,0.007214364602527139
1,53,1.000470609233621,-0.003486709759560936,0.00690087591629662
1,54,1.0004735546825583,-0.0034102280840313894,0.006548454976132621
1,55,1.0004804405340055,-0.0033259650382630036,0.0061619881338761985
1,56,1.000490805924742,-0.003234171005561528,0.005746986812739886
1,57,1.0005041104078367,-0.0031352010970655086,0.005309008726675712
1,58,1.000519790019669,-0.0030294655176320738,0.004854435802714588
1,59,1.000537218630525,-0.002917516441112362,0.004389355033266677
1,60,1.0005557889420418,-0.002799915627437211,0.003920948881466817
1,61,1.0005748576988864,-0.002677421448290641,0.00345533824502362
1,62,1.000593856057626,-0.0025506901005642895,0.0030002391514606114
1,63,1.0006122114007192,-0.0024206784051375193,0.002560834691528569
1,64,1.0006294860318568,-0.002288034550728033,0.0021450083157611355
1,65,1.0006452675320296,-0.002153897358540935,0.0017555657985759646
1,66,1.0006593245815978,-0.002018804103086575,0.001400321575870093
1,67,1.0006714618572854,-0.0018840230120554444,0.0010781105363962522
1,68,1.0006816846370392,-0.0017499434788339745,0.0007966840134835866
1,69,1.0006900196205184,-0.0016178642774387591,0.0005498351874950798
1,70,1.0006966507263058,-0.0014881184479646297,0.0003454409028144898
1,71,1.0007017525257929,-0.0013618247542600702,0.00017241348922602905
1,72,1.0007056539801222,-0.0012393154497234086,3.875168735904029e-5
1,73,1.0007085896961698,-0.0011216513023071509,-7.019149750127364e-5
1,74,1.0007107508032091,-0.0010091964725759627,-0.0001455464056315071
1,75,1.0007123265827136,-0.0009024807910465773,-0.0002038674119965556
1,76,1.00071372498724,-0.0008016886839221694,-0.00023593174650263278
1,77,1.0007151361184783,-0.0007077240006713828,-0.00025904868495092183
1,78,1.0007163913400845,-0.0006211703308855475,-0.0002610564245843351
1,79,1.000717211100418,-0.0005423415527366467,-0.0002573541297303346
1,80,1.000717732273299,-0.0004704816660442239,-0.00023428718840947516
1,81,1.0007183100396002,-0.0004048204542408434,-0.00020999422498337643
1,82,1.0007192952878232,-0.00034417197886969125,-0.00017288751517918386
1,83,1.0007207266065883,-0.0002879347723243921,-0.00014426215099562362
1,84,1.0007225319132735,-0.0002352957006885016,-0.00011248638364945134
1,85,1.0007245912472384,-0.00018665170501547517,-0.00010017965446345056
1,86,1.0007266696436938,-0.00014202823927299342,-9.394332141643918e-5
1,87,1.000728811413671,-0.00010378736518413178,-0.00011644730750286676
1,88,1.0007305020149508,-7.345209854613217e-5,-0.00014704189640001736
1,89,1.000731768298849,-5.280875273543266e-5,-0.00020143430655493333
1,90,1.0007325114131886,-4.5468336953189016e-5,-0.0002436807401082262
1,91,1.0007325072903015,-4.60752553355658e-5,-0.0002764277051270448
1,92,1.0007415929715517,-7.471080704961311e-5,-0.000240021611639046
1,93,1.0007450631689467,-0.00013357621592349168,-7.302766074026868e-5
1,94,1.0007459445259894,-0.000213404065048763,0.00031331593835289576
1,95,1.0007456031432218,-0.00030138737002560485,0.000964379123827168
1,96,1.0008050472635248,-0.0002718907408106978,0.0017328973114541003
1,97,1.0009917306015457,-0.00102930887585379,0.003413697185685987
1,98,1.0003054541667078,-0.0010925188737597332,0.006595568429856915
1,99,1.0007682007732794,0.0005615353188751526,0.007655050599775057
1,100,1.0019457941993317,-0.007694883107071549,0.01641328875101669
1,101,0.9965319462662507,0.026522661786926985,0.013993035283720475
2,1,1.0009631030214463,1.839634310120673e-5,-5.697209605554253e-6
2,2,1.0009641449186457,3.945685736530359e-5,-3.6001129914978646e-5
2,3,1.000963564041496,4.7402108736242786e-5,-8.461476354961018e-5
2,4,1.0009633857525664,5.668151382810739e-5,-0.00014437836588059684
2,5,1.0009631481541055,6.941132564955192e-5,-0.0002168764412887014
2,6,1.0009627877214722,8.487584122974895e-5,-0.0003052978189254111
2,7,1.0009623490243407,0.00010357497993901028,-0.000412015037507144
2,8,1.0009618120293033,0.00012636050167196035,-0.0005398403829513349
2,9,1.0009611530659122,0.00015402261086375582,-0.0006915654110679552
2,10,1.0009603476007252,0.00018717637601167617,-0.0008697783450685865
2,11,1.0009593857585088,0.00022616967863364157,-0.00107598900468553
2,12,1.000958284117692,0.00027102936017612205,-0.001310242741968829
2,13,1.0009571048627066,0.00032142582979052944,-0.0015702395588833061
2,14,1.000955971987998,0.00037668104674245693,-0.0018510596471156741
2,15,1.000955087874761,0.0004358223068410781,-0.0021445991053325596
2,16,1.0009547372893628,0.0004976814172975355,-0.0024397494146043983
2,17,1.0009552812191977,0.0005610189896537407,-0.0027224490671566696
2,18,1.000957130293151,0.0006246289921680529,-0.002976431786756954
2,19,1.000960708496826,0.0006873937203224893,-0.0031837498058649685
2,20,1.0009664048260691,0.0007482804959493507,-0.0033257058809048833
2,21,1.000974527552827,0.0008063130264805889,-0.003383383540476655
2,22,1.000985257692923,0.0008605674985998828,-0.003338417343300662
2,23,1.000998611626406,0.000910251343004968,-0.003173445222553851
2,24,1.0010144044181588,0.0009548884793594087,-0.002872917224794482
2,25,1.0010322210055564,0.000994591554444947,-0.0024238270016078687
2,26,1.001051389568992,0.001030342476465163,-0.001816862452710654
2,27,1.0010709744346145,0.0010641803418749408,-0.001047432064008798
2,28,1.0010897927795335,0.001099208171960096,-0.00011678969554699468
2,29,1.0011064723940446,0.0011393860497096123,0.0009673324379908107
2,30,1.0011195409793312,0.0011891225345691302,0.0021904245383002623
2,31,1.0011275515044487,0.0012527197219033644,0.003531674480502369
2,32,1.0011292202799993,0.0013337674613075649,0.004964951810489524
2,33,1.001123568065717,0.0014346245478160551,0.006460464764059672
2,34,1.001110024928814,0.0015561092974215554,0.007986614947007715
2,35,1.0010884920033936,0.0016974563333039259,0.009511962589136455
2,36,1.0010593362838798,0.0018565090599987916,0.011006848045054802
2,37,1.0010233406338553,0.0020300690680792035,0.012444669640224513
2,38,1.0009816060990477,0.002214305813712563,0.013802628017346533
2,39,1.0009354465392624,0.0024051490525643215,0.01506206686440087
2,40,1.0008862720326763,0.0025986096868969967,0.016208429437525606
2,41,1.0008354987574313,0.0027910095529014235,0.017230949681191723
2,42,1.0007844661457594,0.0029791164061472642,0.01812221862638035
2,43,1.000734392693704,0.0031602021245628236,0.01887760528532777
2,44,1.0006863361018463,0.0033320370963413216,0.019494789000289687
2,45,1.000641190261158,0.003492848030866326,0.019973154081492552
2,46,1.0005996735829485,0.0036412457515230872,0.02031349980287492
2,47,1.0005623506181285,0.0037761499997074747,0.020517492193705196
2,48,1.0005296301197948,0.0038967026240326525,0.020587656094476662
2,49,1.0005017979814101,0.004002199634579948,0.020526854016019065
2,50,1.0004790114766036,0.004092014330321024,0.02033862602491782
2,51,1.0004613377544511,0.0041655557715512895,0.0200265929656144
2,52,1.0004487358382983,0.0042222093813932375,0.019595226439458508
2,53,1.000441101706748,0.004261332383082987,0.01904901094129959
2,54,1.0004382321196508,0.004282212649473311,0.018393778565700843
2,55,1.0004398826239367,0.004284111766180861,0.017635381022764483
2,56,1.0004457071495263,0.004266240786293185,0.01678180080604328
2,57,1.000455340008982,0.004227863864126831,0.015840957169105396
2,58,1.0004683032848347,0.00416828573463319,0.014823906740906721
2,59,1.0004841287680362,0.004087025732468469,0.013741228211511696
2,60,1.0005022221319542,0.003983801653099531,0.012607762012320492
2,61,1.0005220452243966,0.0038587684869109793,0.01143679899200608
2,62,1.0005429223625684,0.003712465952397579,0.010247005085405053
2,63,1.0005643050405553,0.003546087848520673,0.009053420609579747
2,64,1.0005855020448096,0.0033613508152256755,0.007877497324041364
2,65,1.0006060437011506,0.0031607215737767883,0.006733762434342546
2,66,1.000625316573601,0.0029471727115220094,0.005644241045241239
2,67,1.0006430303405298,0.0027243161744520067,0.004619646037043172
2,68,1.0006587426932287,0.0024960401290942628,0.003679661133209626
2,69,1.000672417198385,0.0022664737270551567,0.002827841045611895
2,70,1.0006838388154882,0.002039604174070713,0.0020789633356076186
2,71,1.0006932199385008,0.0018193434683190953,0.0014274747035393958
2,72,1.00070054559319,0.0016089850796874975,0.0008821015662811673
2,73,1.0007062614674953,0.001410929549133751,0.0004284087130898021
2,74,1.0007104612525488,0.0012267921882402368,7.038976816111597e-5
2,75,1.0007135224802541,0.0010583737020786674,-0.00021229017648396808
2,76,1.0007155594852724,0.000906776134779392,-0.0004185753257784324
2,77,1.0007172771701602,0.0007707075314736684,-0.000573066541887206
2,78,1.000718791707401,0.0006469418734195881,-0.0006729579938742993
2,79,1.0007200997543853,0.0005338141841312368,-0.0007381174413044279
2,80,1.0007206393887484,0.0004332036449926328,-0.0007599480343403054
2,81,1.0007206257980004,0.0003488406032864372,-0.0007618794418032113
2,82,1.00072017411151,0.00028379360418530797,-0.000744766710319448
2,83,1.0007198520849148,0.00023936952876253435,-0.0007450847418562394
2,84,1.000719374938691,0.00021520092789308165,-0.0007705955818859837
2,85,1.0007188043859139,0.00021093643520593875,-0.0008610492447424813
2,86,1.0007176726558429,0.00022423712741387694,-0.0010202138057530253
2,87,1.0007156778774748,0.00024985912247859043,-0.0012790460035607017
2,88,1.0007131042446902,0.0002764907043739472,-0.001621415292785695
2,89,1.000709491035927,0.0002882079925065315,-0.0020468833656142604
2,90,1.0007064171282452,0.0002704032112436937,-0.0025051238665000203
2,91,1.0007069241389135,0.000188008490589543,-0.0029432034775593455
2,92,1.0007116141961934,8.760914567653205e-6,-0.0032541975031742305
2,93,1.0007372854765204,-0.00035772849017385916,-0.0033250144653096067
2,94,1.0007474930467997,-0.0008342890773784383,-0.0029576989679557493
2,95,1.0008061615672492,-0.0011803485465014486,-0.0023050017741488944
2,96,1.00087188749201,-0.0023132024691737358,-0.0005522285989031767
2,97,1.000774142575477,-0.0037947527248498323,0.0018995645779389234
2,98,1.0015304050872074,-0.004561655482075605,0.0039075967976449225
2,99,1.0004328119779764,-0.010813328675386836,0.016150171991259003
2,100,0.9996437170125123,-0.012212781140682725,0.02179961451674946
2,101,1.0037936654358368,0.05153371460116785,0.005626238035371316
3,1,1.0009631447774057,3.2607041838896986e-5,-5.593981061614292e-6
3,2,1.0009647736178129,8.312284890499972e-5,-3.967075489146797e-5
3,3,1.000964285123534,0.00011041449761112372,-0.00010351055089276775
3,4,1.00096381870794,0.00013404695562277446,-0.00019065482447139703
3,5,1.0009635004122457,0.00016235019173979704,-0.0002976076712389911
3,6,1.0009631292078036,0.00019540636525070966,-0.0004269218650248325
3,7,1.0009626404359293,0.0002324985830226471,-0.0005822620521293035
3,8,1.0009620456793824,0.0002734423444617001,-0.0007667549177758418
3,9,1.000961313975394,0.0003171746790606709,-0.0009828999087689854
3,10,1.000960426077776,0.00036122846415552153,-0.0012320739541748038
3,11,1.0009593861049728,0.00040163419702702035,-0.0015132150952096924
3,12,1.0009582327902606,0.0004329469624336038,-0.0018222224252127455
3,13,1.000957055421832,0.00044847139175833653,-0.002150998513547348
3,14,1.0009560063013325,0.0004406777838168361,-0.0024874827618760085
3,15,1.0009553068007007,0.00040181277959219926,-0.002815636765296291
3,16,1.0009552417981125,0.0003246268202549276,-0.0031164929642935983
3,17,1.00095614080213,0.00020306791524164048,-0.003369084876956022
3,18,1.0009583488168627,3.2776556016241925e-5,-0.00355202396831381
3,19,1.0009621911808309,-0.00018871058557263273,-0.0036444563086368564
3,20,1.0009679415313075,-0.0004620106037297565,-0.00362710964843336
3,21,1.0009757954399296,-0.0007860586277420901,-0.0034824832338421386
3,22,1.0009858523367943,-0.001158207727705878,-0.0031951656155920225
3,23,1.0009980979010291,-0.001574138737009595,-0.002751731611024388
3,24,1.0010123806226536,-0.002027569253867451,-0.0021412741074058193
3,25,1.0010283749641984,-0.002509895177582355,-0.0013559781302020992
3,26,1.0010455378507157,-0.0030099862510801923,-0.00039240195936903106
3,27,1.0010630733654804,-0.0035143451835330888,0.0007474597657831612
3,28,1.0010799238215426,-0.004007725221608988,0.002054986652976008
3,29,1.0010948022173263,-0.004474178198991093,0.0035145879728012597
3,30,1.0011062745313064,-0.004898400195243632,0.005103815335374256
3,31,1.0011128945452032,-0.005267157675727252,0.006794637219640798
3,32,1.0011133666920402,-0.00557051066255195,0.008555121732040179
3,33,1.0011067084205352,-0.005802579720662881,0.01035181193794442
3,34,1.0010923679569,-0.005961717269006188,0.012151788899608837
3,35,1.00107028462347,-0.006050114756046499,0.013924684474327912
3,36,1.0010408736123673,-0.006072998966400979,0.015643828089104816
3,37,1.0010049618946717,-0.006037635886566766,0.017287091069216484
3,38,1.0009636786959006,-0.005952334669341559,0.01883688096970814
3,39,1.0009183437376292,-0.005825596844743768,0.02028004309261238
3,40,1.0008703490882067,-0.0056654735694911485,0.02160718626011841
3,41,1.0008210719762318,-0.005479150420635983,0.022812193950663563
3,42,1.000771796487389,-0.005272725708001037,0.02389138253500052
3,43,1.000723674332568,-0.005051150766124188,0.024843006921004746
3,44,1.000677690378642,-0.0048182744040095905,0.02566652316325202
3,45,1.0006346615378905,-0.004576966452152604,0.026362243113983906
3,46,1.000595230352243,-0.004329270130371901,0.0269307905349269
3,47,1.0005598833638856,-0.004076582958882842,0.027372915394220543
3,48,1.0005289567908202,-0.003819823845898832,0.027689151535957263
3,49,1.0005026599254454,-0.003559611703470684,0.027879740330786974
3,50,1.0004810839265725,-0.0032964098517737485,0.027944493804083075
3,51,1.0004642223715365,-0.003030685714921315,0.027882758556050543
3,52,1.0004519809390107,-0.0027630228269537797,0.02769352964705151
3,53,1.000444191696832,-0.002494260940702353,0.027375372029486863
3,54,1.0004406258247078,-0.0022255697415355644,0.026926899513261947
3,55,1.0004409997810166,-0.00195856515751252,0.02634653304491096
3,56,1.0004449952634829,-0.001695327593416489,0.025633546777906222
3,57,1.0004522544696755,-0.0014384759105898156,0.024787451183248602
3,58,1.0004624116062473,-0.0011910963739290767,0.023809905144504227
3,59,1.0004750719340625,-0.000956741879872654,0.022703335777630337
3,60,1.000489857915383,-0.0007392299541353519,0.021474107285165175
3,61,1.0005063645621566,-0.0005425389889246723,0.020129710917172205
3,62,1.0005242221995811,-0.00037045561041805313,0.018683658854996617
3,63,1.000543022928239,-0.00022638068085480438,0.017150231612274528
3,64,1.000562402047237,-0.00011287071214575558,0.015551649344173848
3,65,1.0005819397517766,-3.145246153359411e-5,0.013909089266697944
3,66,1.0006012652404124,1.7803163576506356e-5,0.012252826209787956
3,67,1.0006199525337902,3.630746097074173e-5,0.0106082559660614
3,68,1.0006376371421732,2.7141321868492918e-5,0.009009946422776317
3,69,1.00065393883388,-5.254721321683127e-6,0.007481903220555605
3,70,1.0006685738461099,-5.523459661153448e-5,0.006056598334157939
3,71,1.000681313390101,-0.00011640955676657564,0.004749700395114299
3,72,1.0006920165445299,-0.00018215811826714342,0.003585097674202537
3,73,1.00070067835047,-0.00024660514878599356,0.0025648321504903745
3,74,1.0007074226965746,-0.0003050366853718317,0.0017001914652493822
3,75,1.0007124673785126,-0.0003530628612388818,0.0009788451167913159
3,76,1.0007159086861637,-0.0003866015162008687,0.00040132792607089774
3,77,1.0007181019810838,-0.00040508983908554033,-5.643451670973907e-5
3,78,1.0007195876563943,-0.000413712142532891,-0.0004024719378594239
3,79,1.0007207839442898,-0.0004184206960545335,-0.0006636046638148558
3,80,1.0007213664482162,-0.0004175326827267623,-0.0008413714835109544
3,81,1.0007209130273451,-0.0003999367401736426,-0.0009593792692137562
3,82,1.0007193668328584,-0.0003509570829689539,-0.0010295287763470125
3,83,1.0007172224309129,-0.0002597684596156906,-0.0010994912549543035
3,84,1.0007148930294303,-0.0001229322995010998,-0.0012044669085792973
3,85,1.0007125378388404,5.625684133813592e-5,-0.0014019053919547882
3,86,1.0007098847435396,0.0002669813372957899,-0.0017184339290458545
3,87,1.000706855313533,0.00048451174001994227,-0.0021837536811888203
3,88,1.0007022709541624,0.0006763528492342265,-0.0027761543965220945
3,89,1.000698033469379,0.0008030318752459328,-0.0034735316906612857
3,90,1.0006937855829574,0.0008128727862182925,-0.004180618937780916
3,91,1.0006914892391303,0.000668938447355594,-0.004824065972830556
3,92,1.0006956434046252,0.0002721416384127326,-0.005252758701847819
3,93,1.0006895061174697,-0.00036445522462003727,-0.005413374688126364
3,94,1.0007462360602195,-0.001149327241411341,-0.005427084029405925
3,95,1.0007535960840208,-0.002507076248421507,-0.004449765106009835
3,96,1.0006246028022074,-0.003662472586607505,-0.003396752451848356
3,97,1.0010777003838462,-0.005334340630956976,-0.002987044073771441
3,98,1.0007039032780043,-0.0124282260051185,0.0035535705533903355
3,99,0.9995398182891493,-0.016984837228708118,0.005925318373733815
3,100,1.0006028593084968,-0.0027466134735228773,-0.0006285617707236458
3,101,1.0005227566344665,0.05518844021329784,-0.001926651002953657
4,1,1.000962780267625,5.362288514368809e-5,-6.864737323040707e-6
4,2,1.0009646238980237,0.00013968345213188915,-4.696755263875261e-5
4,3,1.0009643671889936,0.00019855504399409954,-0.00012327273824924007
4,4,1.000963927271668,0.00024853705903906797,-0.00023126708516413782
4,5,1.0009634529619227,0.00030161993610437467,-0.0003657147715831011
4,6,1.0009631046486267,0.0003634830864422028,-0.0005245787322532959
4,7,1.0009627208854674,0.0004349755201852294,-0.0007100490521034392
4,8,1.000962234376545,0.0005157085714043879,-0.0009244659154657649
4,9,1.0009616645847053,0.0006045767033485039,-0.001167580830958667
4,10,1.0009610140508824,0.000698580642498395,-0.001436642352727141
4,11,1.0009603098998954,0.0007926153761215533,-0.0017251291356434665
4,12,1.0009596145719526,0.0008798184655193085,-0.002022427151816517
4,13,1.0009590294579036,0.0009522141286263713,-0.0023133981128456486
4,14,1.0009587003368896,0.0010016411246364734,-0.002579368604083515
4,15,1.0009588115385237,0.0010207922185440212,-0.0027991038056358218
4,16,1.0009595724744862,0.001004136070652285,-0.0029508907991644814
4,17,1.0009611949531019,0.0009484483803988992,-0.003013957895316531
4,18,1.0009638701441914,0.0008527770961542972,-0.002970091338019338
4,19,1.000967749074776,0.00071788233891773,-0.0028038425711499537
4,20,1.0009729361268125,0.0005454283989063325,-0.0025025391356950214
4,21,1.000979493116091,0.0003373314011844287,-0.0020551769642979294
4,22,1.0009874488809634,9.562925602622096e-5,-0.0014519088302298619
4,23,1.000996795896344,-0.0001769755660217149,-0.0006835314520584253
4,24,1.0010074606524744,-0.0004760454045118716,0.00025755558187754454
4,25,1.0010192445257735,-0.0007942255673065887,0.0013760658652713369
4,26,1.0010317491934886,-0.0011204413593416222,0.0026715065273702405
4,27,1.0010443122779757,-0.0014398569333755622,0.004136494277426316
4,28,1.0010559744982408,-0.0017347458527288504,0.005755227969749029
4,29,1.0010655121974805,-0.0019862069387289964,0.00750368424883075
4,30,1.00107153925425,-0.0021763995326838886,0.009350623118194396
4,31,1.0010726799796676,-0.00229079841737525,0.011260291368751106
4,32,1.0010677538527157,-0.0023199189261511916,0.013195150355404328
4,33,1.0010559481726327,-0.0022601621651807623,0.015119133995695856
4,34,1.0010369116665043,-0.002113689417445421,0.01699973263187271
4,35,1.0010107909134816,-0.001887518928914988,0.018809842765394106
4,36,1.0009781741807595,-0.0015921524952700152,0.020528104223961084
4,37,1.000940014188449,-0.0012400837137426588,0.022139173848768897
4,38,1.0008974978426532,-0.0008444331023137491,0.023632822051273157
4,39,1.000851949258668,-0.00041787634747335014,0.02500346608372168
4,40,1.0008047087186942,2.8100342676887394e-5,0.026248876589605393
4,41,1.0007570746411245,0.0004836213928981639,0.0273696689429547
4,42,1.000710224107109,0.0009405922485427606,0.028368100840899007
4,43,1.0006652034558638,0.0013926719565914385,0.029247808582444326
4,44,1.0006228853896397,0.0018351295855764626,0.030012826284994274
4,45,1.0005839934723526,0.002264622303553995,0.030667597620383746
4,46,1.0005490787782296,0.0026789523450907893,0.031216179577921388
4,47,1.0005185602983924,0.0030768115655183336,0.03166246551169631
4,48,1.0004927070405796,0.0034575493060142043,0.03200949227114308
4,49,1.0004716819856978,0.0038209480862572394,0.03225980138572252
4,50,1.0004555224898175,0.004167035648888639,0.0324147807229195
4,51,1.0004441817213652,0.004495898765341686,0.032475112673249915
4,52,1.0004375060838524,0.004807535915400634,0.032440116812109475
4,53,1.0004352724229706,0.00510169391952984,0.0323082624694436
4,54,1.000437165265584,0.005377751092111432,0.032076532317426354
4,55,1.000442810649338,0.005634563443040111,0.03174100267984732
4,56,1.0004517588654713,0.005870382369858332,0.03129632857728241
4,57,1.0004635168668186,0.006082717231236462,0.03073640696275032
4,58,1.0004775439305493,0.006268321717904391,0.03005419771378437
4,59,1.000493283523352,0.0064231138671009495,0.029242449903961514
4,60,1.00051017842725,0.006542302502144834,0.02829420358757062
4,61,1.0005276977158863,0.006620440858376964,0.027203410645769904
4,62,1.0005453724012217,0.006651783209264223,0.025966553199543694
4,63,1.000562803163882,0.006630549877207405,0.024582645020499807
4,64,1.0005797077287302,0.006551555396894675,0.023056380942126465
4,65,1.0005958860936588,0.006410678202726338,0.021396454118171374
4,66,1.0006112687293123,0.006205655320869406,0.019620498722591435
4,67,1.0006258189523838,0.005936565203373447,0.017750121530742517
4,68,1.0006395861257305,0.005606469912718928,0.015817795839895545
4,69,1.0006525581659624,0.005221548499145573,0.013856953217129502
4,70,1.0006647561340531,0.004791188491045582,0.011911120724199743
4,71,1.000676065767559,0.004327466264803155,0.01001837148490124
4,72,1.0006863972390858,0.003844529138141524,0.008223637578707756
4,73,1.000695537870189,0.0033573122090416016,0.0065583015722383824
4,74,1.0007034094188247,0.0028802846327343045,0.005056417416668539
4,75,1.0007099221565463,0.002426648260297305,0.0037319094106665882
4,76,1.000715073717829,0.0020084928556134175,0.0026008780174248893
4,77,1.0007187375229125,0.0016346994096013605,0.0016577733335402204
4,78,1.0007211809640288,0.0013063824248255385,0.0008981979955289991
4,79,1.000722957300775,0.0010168929597352582,0.0002965910376330944
4,80,1.00072446221956,0.0007630298728523171,-0.0001603424311004223
4,81,1.0007252663450736,0.0005567777904832074,-0.0004939316132975231
4,82,1.000724845373702,0.00042487166419260907,-0.0007169723141705662
4,83,1.0007233102996087,0.0003944352605143074,-0.0008719218736982998
4,84,1.0007213754639754,0.0004776413748893655,-0.0010094644734154371
4,85,1.0007198567731224,0.0006675939603800562,-0.0012011261642920156
4,86,1.000719099694039,0.0009334029533274769,-0.0014932841676718624
4,87,1.000718064054348,0.00122136341719056,-0.0019116346210954127
4,88,1.0007173993098222,0.0014619808836288468,-0.002430031753204209
4,89,1.0007153004152172,0.0015737215112775658,-0.0029763495616709087
4,90,1.0007149046349257,0.0014861656120596688,-0.003462289998185181
4,91,1.0007141687421213,0.0011044125250043446,-0.003736170815027863
4,92,1.0007059128241034,0.00047285699883664,-0.003776373482288604
4,93,1.000744650135698,-0.00037270304854708627,-0.003690281683633744
4,94,1.0007204246297794,-0.0018529235198362116,-0.002891761646859988
4,95,1.0006818614877204,-0.0031256834565486294,-0.002434128943996118
4,96,1.0010055907614892,-0.004424961544097847,-0.0020758816076291552
4,97,1.000605111321909,-0.009765330910670523,0.002524887977369668
4,98,1.0000783861739784,-0.014302351601126334,0.003035223075137479
4,99,1.0009139914394856,-0.010663405209262443,-0.002080726069997613
4,100,1.001301494166724,-0.0015307290869040783,-0.002476823257929899
4,101,0.9998031367425488,0.052083075265647025,-0.0005517002596825667
5,1,1.0009624970608568,7.351247739498816e-5,-7.808604295900898e-6
5,2,1.0009645275681727,0.00020087633083268992,-5.379701937309835e-5
5,3,1.0009642418127147,0.0002951376502353703,-0.00014100796019978493
5,4,1.0009639375721888,0.00037454421953025995,-0.00026245053449734093
5,5,1.0009635027209733,0.0004512481353749473,-0.00041261076710477705
5,6,1.0009630702548875,0.0005335015058238942,-0.0005871885454130139
5,7,1.0009627310352658,0.000624425069575067,-0.0007835903668129457
5,8,1.0009623411914241,0.0007211512344916426,-0.0010009727583630461
5,9,1.0009618445184367,0.0008175793377397528,-0.0012355850852168013
5,10,1.0009612655853097,0.0009050591039343319,-0.0014794738535961335
5,11,1.0009606146974717,0.0009720029982544948,-0.0017202436345519125
5,12,1.0009599213528884,0.001004683703756111,-0.001941813408364642
5,13,1.0009592473567965,0.0009887771694170897,-0.0021247694759801506
5,14,1.0009586908142336,0.0009111252999901706,-0.0022485002044809557
5,15,1.0009583885416238,0.0007613601236905176,-0.002292734600804263
5,16,1.0009585106448282,0.00053293999517709,-0.002239858164106198
5,17,1.0009592480560605,0.00022328144590607796,-0.0020754896484682494
5,18,1.0009608039558653,-0.00016703130038474547,-0.0017887996550338767
5,19,1.0009633926283874,-0.0006355878669281626,-0.0013707774796309965
5,20,1.0009672535003515,-0.0011793712602067967,-0.0008127934100029475
5,21,1.0009726652213806,-0.0017951792966287793,-0.00010454207601595073
5,22,1.00097993943458,-0.002478876619670896,0.0007659441503470403
5,23,1.0009893669060197,-0.003223651214324099,0.0018114684151927345
5,24,1.0010011101692882,-0.004017938365948163,0.0030423621807293354
5,25,1.0010150670852374,-0.004843900659668907,0.004463225259078922
5,26,1.0010307372612635,-0.005677168411888003,0.006068958056011781
5,27,1.0010471465317075,-0.006488177174716514,0.007842999908766243
5,28,1.0010628552282326,-0.007244971660670962,0.009756663045476208
5,29,1.0010760979221296,-0.007916928136242445,0.01177171158829123
5,30,1.0010850012079997,-0.00847848997681628,0.013843693543247904
5,31,1.0010878640772167,-0.008912021832513646,0.015927103052911975
5,32,1.001083374233384,-0.009209172030363172,0.01797911544272457
5,33,1.0010707789667752,-0.009370666654227736,0.01996335899690115
5,34,1.0010499064332032,-0.009404839061750677,0.021851022089960873
5,35,1.001021153076176,-0.009325467749544148,0.023621881220831763
5,36,1.0009853449089323,-0.00914944284547404,0.025262985839387006
5,37,1.0009436475651452,-0.008894694692925007,0.026768169202323115