TITLE="CMs_NON_Orthogonal Re = 10000.0"
VARIABLES = X,Y,Rho,U,V
ZONE
I = 101	J = 101
F=POINT
1,1,1.0009790707223645,1.754344935547439e-6,-2.7590977173528825e-6
1,2,1.0009801377981362,5.3148301160231705e-6,-1.780126279483411e-5
1,3,1.0009800657121726,5.610774684062449e-6,-3.733246902594307e-5
1,4,1.0009803179633168,6.373494319934205e-6,-5.990171146951712e-5
1,5,1.0009805862605305,7.115432487010745e-6,-8.698221845837818e-5
1,6,1.0009808585112403,7.530445911085055e-6,-0.00011962242372395272
1,7,1.0009811585029431,7.31132968709019e-6,-0.00015866173713556815
1,8,1.0009814995420707,6.033122140619677e-6,-0.00020521006486715475
1,9,1.0009818743047674,3.0613164390030263e-6,-0.0002603407971525564
1,10,1.0009822667264978,-2.4807495085682975e-6,-0.00032524111677560046
1,11,1.0009826512226283,-1.1719005825006251e-5,-0.0004007617924748071
1,12,1.0009830026946647,-2.6027002318422045e-5,-0.0004874743983406421
1,13,1.0009833062831377,-4.7004515047381236e-5,-0.0005851836842835532
1,14,1.0009835724438412,-7.642618812488609e-5,-0.0006929377681588807
1,15,1.00098385341718,-0.00011616565204099021,-0.0008085861798113531
1,16,1.000984260505416,-0.00016807695750987875,-0.0009288450163662397
1,17,1.0009849743066774,-0.00023386503116776003,-0.0010490323244128862
1,18,1.0009862447884317,-0.0003149425296958004,-0.001163300319984273
1,19,1.000988374850662,-0.00041231457446892745,-0.0012646109478988007
1,20,1.000991690525313,-0.0005264787494280397,-0.0013451134655177604
1,21,1.0009964980113542,-0.0006573658283034051,-0.0013962793948033114
1,22,1.0010030353980797,-0.0008042967184046082,-0.0014093325520841081
1,23,1.0010114210667833,-0.000965973569579838,-0.0013754822302917491
1,24,1.0010216061468105,-0.0011404864720934397,-0.0012864176844503597
1,25,1.0010333323553517,-0.001325357019823012,-0.0011346966947345708
1,26,1.001046102076501,-0.001517609859407759,-0.0009143761195343249
1,27,1.001059164483269,-0.0017138901843439629,-0.0006215466673255954
1,28,1.0010715295958708,-0.0019106126721665064,-0.00025497074198360117
1,29,1.0010820176209654,-0.0021041417469721633,0.00018351030754609253
1,30,1.0010893465622321,-0.0022909791396705254,0.0006886719650379227
1,31,1.0010922470639194,-0.0024679634089263673,0.0012519592894846192
1,32,1.0010895910451905,-0.0026324712863235043,0.0018617744005094694
1,33,1.001080514624421,-0.002782589535000112,0.0025041914906524356
1,34,1.0010645170864232,-0.002917182347904645,0.0031638719219146154
1,35,1.001041517261286,-0.0030358420844644,0.0038251131178244097
1,36,1.0010118600865456,-0.0031387535341622797,0.004472755437201769
1,37,1.0009762738043826,-0.003226530161320541,0.005092949628279167
1,38,1.0009357912403107,-0.0033000507475919763,0.005673655302656054
1,39,1.000891649613331,-0.003360322624183641,0.006204943478905723
1,40,1.0008451885218739,-0.0034083715905993753,0.0066790664493824
1,41,1.00079775623903,-0.003445166515886123,0.00709038897214995
1,42,1.0007506364311338,-0.003471568535949274,0.007435195636677884
1,43,1.0007049932526473,-0.003488307149879679,0.0077114414891826764
1,44,1.000661840131956,-0.0034959708712196834,0.007918484708222932
1,45,1.0006220212675492,-0.0034950143645036515,0.00805681031564462
1,46,1.000586211386495,-0.003485770697308166,0.008127810792299663
1,47,1.0005549174392634,-0.0034684723690042597,0.008133558149663695
1,48,1.0005284938050472,-0.0034432712729082792,0.008076686204218156
1,49,1.000507149222985,-0.0034102636260089944,0.007960223287009282
1,50,1.0004909671896232,-0.003369510196018488,0.00778758935763007
1,51,1.0004799091180643,-0.003321061169846745,0.007562463346720144
1,52,1.000473836500936,-0.0032649726952457916,0.007288895629348531
1,53,1.0004725063944964,-0.003201331580294765,0.006971158010474903
1,54,1.000475597218125,-0.0031302639122001083,0.006613979823422942
1,55,1.0004826955351476,-0.0030519627148177532,0.006222297641456919
1,56,1.000493330832034,-0.0029666799664052894,0.0058016521062977285
1,57,1.0005069534319317,-0.002874766219620658,0.005357699975767551
1,58,1.0005229854406597,-0.0027766272492682144,0.004896876539213162
1,59,1.0005407887197983,-0.0026727985758581104,0.004425428706232988
1,60,1.000559739033525,-0.0025638280923930916,0.003950599500856062
1,61,1.0005791806053326,-0.0024504383584267827,0.003478739383141634
1,62,1.0005985274140525,-0.002333260595728508,0.0030175887511661057
1,63,1.0006171973023041,-0.002213189433770472,0.002572638864634097
1,64,1.000634738928353,-0.0020908387373774306,0.002151684187174799
1,65,1.0006507369363142,-0.001967254453022669,0.001757936731047809
1,66,1.0006649529330784,-0.0018429355215058446,0.0013989051121531047
1,67,1.0006771971120643,-0.0017190294526437232,0.0010739663447770832
1,68,1.0006874755989494,-0.0015958889854326762,0.0007902508993849637
1,69,1.0006958271994162,-0.001474681582662663,0.0005422775827323345
1,70,1.0007024402345857,-0.0013557045890700702,0.00033695479311158074
1,71,1.0007075060537185,-0.0012399510036641265,0.00016412032444157172
1,72,1.0007113625488402,-0.0011277289975615498,3.0500618968915042e-5
1,73,1.0007142509044384,-0.001020007629292204,-7.740289848020734e-5
1,74,1.0007163592293402,-0.0009171122995912213,-0.00015217491931492655
1,75,1.0007178980052174,-0.0008194903958407629,-0.0002090905633967259
1,76,1.0007192866295687,-0.000727335884074764,-0.00024052087990922158
1,77,1.0007206970635758,-0.0006415390496974812,-0.00026225652481314297
1,78,1.0007219279313642,-0.0005626699348170513,-0.00026365373680434863
1,79,1.000722709421859,-0.0004909570555593268,-0.00025848832930343816
1,80,1.000723208865492,-0.00042561172812980634,-0.00023489016525511737
1,81,1.0007237995980607,-0.0003658493557599453,-0.00020947528344164405
1,82,1.00072481557467,-0.0003105508099089419,-0.00017255093569696
1,83,1.0007262751756918,-0.00025914759051446154,-0.0001437009100572077
1,84,1.0007280924151778,-0.00021089487438373788,-0.00011321167327803907
1,85,1.000730147998554,-0.00016617859248118142,-0.00010186538875545432
1,86,1.0007322015676836,-0.00012505498238953787,-9.832154263461221e-5
1,87,1.0007342965773933,-8.979292283449389e-5,-0.00012317250175532417
1,88,1.0007359135874156,-6.186444168748599e-5,-0.00015792020130947978
1,89,1.0007370940711058,-4.3052919465831144e-5,-0.0002159250748643623
1,90,1.0007377182216393,-3.704710594246292e-5,-0.00026326702982064847
1,91,1.0007376267532857,-3.864832678068179e-5,-0.0002999419475583736
1,92,1.0007466913640222,-6.807204409378156e-5,-0.0002680019184492777
1,93,1.0007502718495511,-0.00012760641866980103,-0.00010357879641297
1,94,1.0007515016020363,-0.00020832669381198917,0.0002811162173502937
1,95,1.0007513160867882,-0.0002972184030467622,0.0009331158947914889
1,96,1.000811511985391,-0.00026896172633190094,0.00170569772740929
1,97,1.000998859333008,-0.001028112994138063,0.0033939651300937427
1,98,1.000311735046151,-0.0010920751124720953,0.0065852756963833215
1,99,1.0007758398219722,0.0005620132018828892,0.007656262514372615
1,100,1.001953110961303,-0.007691831387073138,0.01641375755145837
1,101,0.9965374467483576,0.026524063227112888,0.013994679480771443
2,1,1.000977805267018,1.8249017126121428e-5,-5.708254590373283e-6
2,2,1.0009788476303272,3.935717135126253e-5,-3.607161460788663e-5
2,3,1.000978266820869,4.7332358790538526e-5,-8.483562474194372e-5
2,4,1.0009780879751489,5.658780770672483e-5,-0.0001448453307872918
2,5,1.0009778481682634,6.921638453986448e-5,-0.00021767390012188825
2,6,1.0009774846539388,8.447981320778319e-5,-0.0003064966612620857
2,7,1.0009770421952762,0.00010283332191949033,-0.00041369216891251994
2,8,1.0009765002505633,0.00012505229596102487,-0.000542075110555406
2,9,1.000975834629709,0.00015182272363625993,-0.0006944330536774758
2,10,1.0009750207375236,0.00018363183175681465,-0.0008733298589138445
2,11,1.000974048942173,0.0002206783135366007,-0.0010802382952890544
2,12,1.0009729366598654,0.00026282226590232784,-0.0013151434995961912
2,13,1.0009717474765156,0.0003095564476452768,-0.0015756678251651443
2,14,1.0009706076314508,0.0003600236986262941,-0.0018567881925324566
2,15,1.000969722414963,0.0004130826484325766,-0.002150278965668385
2,16,1.0009693802077504,0.00046742091838103373,-0.0024448876146029113
2,17,1.0009699458780714,0.0005216940216921978,-0.0027263962528265876
2,18,1.0009718339274514,0.0005746432192634973,-0.0029783723011074714
2,19,1.0009754714151158,0.000625160614676401,-0.003182706039386284
2,20,1.0009812489947654,0.0006722918998131176,-0.0033205509312223833
2,21,1.0009894741974872,0.0007152091330982845,-0.0033728694235394393
2,22,1.0010003243502044,0.0007532038007097387,-0.003321212254658046
2,23,1.0010138085742082,0.0007857582576409188,-0.00314818290833074
2,24,1.0010297310700347,0.0008127197506909783,-0.0028382535532485123
2,25,1.0010476621897886,0.0008345572827361008,-0.002378504975920438
2,26,1.0010669123382736,0.0008526225588139691,-0.0017597814810984202
2,27,1.001086525638444,0.000869314688128558,-0.0009777173335065038
2,28,1.001105298365612,0.0008880625802178511,-3.385438510196116e-5
2,29,1.0011218385501917,0.0009130956707165763,0.0010637420308784703
2,30,1.0011346577931695,0.0009490180013348536,0.002300208564121334
2,31,1.0011422988613405,0.0010002439378103154,0.0036543935071909252
2,32,1.0011434758789346,0.001070394058616751,0.005099872757203347
2,33,1.0011372158861678,0.001161789193165153,0.006606635823373338
2,34,1.001122963088325,0.0012751615058285923,0.00814294940458476
2,35,1.001100638306381,0.0014096334158535885,0.009677323385731873
2,36,1.0010706313786166,0.0015629293320724446,0.011180114019517899
2,37,1.0010337482584306,0.0017317388144462518,0.012624787377891
2,38,1.000991111613754,0.0019121343422841299,0.013988636298509861
2,39,1.0009440538592094,0.0020999668079570927,0.015253109548503369
2,40,1.000894000515396,0.0022911861841710076,0.01640374407417014
2,41,1.0008423797546937,0.002482069053431929,0.017429856318816005
2,42,1.0007905405505504,0.002669350817710253,0.018324089208778767
2,43,1.000739708477921,0.0028502808076996057,0.019081846119437453
2,44,1.0006909471446819,0.003022614279881876,0.01970080389920957
2,45,1.000645154837374,0.0031845677785703056,0.020180332619370422
2,46,1.0006030541911264,0.0033347455412118835,0.020521179632604768
2,47,1.0005652128689606,0.0034720623403238235,0.020724959938244743
2,48,1.0005320431474831,0.0035956560448493088,0.020794108491245328
2,49,1.0005038331789156,0.0037048175786465057,0.02073141657090955
2,50,1.0004807432562834,0.003798913955103423,0.02054030945256024
2,51,1.0004628416808945,0.003877343955999662,0.020224336563804502
2,52,1.0004500897227344,0.00393947933432263,0.019787844478705057
2,53,1.0004423827164328,0.003984656385787917,0.019235272143207412
2,54,1.0004395183741883,0.004012136778931513,0.01857233486129239
2,55,1.0004412487965122,0.004021145500604363,0.01780490038329965
2,56,1.0004472269238929,0.004010851237734552,0.016940866063067325
2,57,1.0004570795950352,0.003980463587637358,0.015988275272168357
2,58,1.0004703253729557,0.003929229497541834,0.014958155719955056
2,59,1.0004864833649476,0.0038565993863001464,0.013861369900049453
2,60,1.0005049530786585,0.003762225799697351,0.01271279872553447
2,61,1.0005251779205615,0.00364619199534434,0.011526217722341362
2,62,1.0005464744412231,0.00350898018863829,0.01032038267506796
2,63,1.000568270884771,0.0033517270698592747,0.0091110272630459
2,64,1.0005898695080118,0.0031761166118028255,0.007919666352707388
2,65,1.0006107755714755,0.002984587443131858,0.006761685825951885
2,66,1.0006303747735283,0.0027801122401790532,0.005659011488592403
2,67,1.0006483542543942,0.0025663060021531635,0.004623291543953124
2,68,1.000664280646288,0.0023470786076517985,0.003673789539992028
2,69,1.0006781013136152,0.0021265689992721144,0.002814978396693994
2,70,1.0006896211624698,0.0019087857626801305,0.0020607899721558675
2,71,1.000699041536543,0.0016976437288586867,0.001406527073775985
2,72,1.0007063774481133,0.001496411381514133,0.0008596464728741679
2,73,1.0007120696093539,0.0013074155201671417,0.0004065528715309362
2,74,1.0007162356254935,0.001132246780876154,4.971142303964411e-5
2,75,1.0007192377851106,0.0009727040385666052,-0.0002302984366100916
2,76,1.0007212357528215,0.0008297683371674564,-0.00043418491848811624
2,77,1.0007229339960513,0.0007018731863554942,-0.0005854405699390184
2,78,1.0007244468088725,0.000585656071862225,-0.0006827293891327288
2,79,1.0007257120426876,0.00047961610081678367,-0.0007443228259035275
2,80,1.0007261923848145,0.00038590625955198596,-0.0007633806819779988
2,81,1.0007261163376044,0.00030835508501867793,-0.0007622908673095927
2,82,1.000725644113112,0.0002499505594065711,-0.0007442442289750887
2,83,1.0007253057201282,0.00021189559158934365,-0.0007445121510184815
2,84,1.0007248128934179,0.0001938153906327118,-0.0007728873735575717
2,85,1.0007241833050713,0.00019534649028399263,-0.0008674252815362441
2,86,1.0007229600865646,0.00021400337062485117,-0.0010337041584754908
2,87,1.000720818702817,0.0002443616053339964,-0.0013005212809759673
2,88,1.0007180796068162,0.0002748938176559012,-0.0016532971610861368
2,89,1.0007142646200975,0.00028938813351365246,-0.002088920438168682
2,90,1.000711040412386,0.00027290363162355295,-0.0025581396275497
2,91,1.0007114302255042,0.00019042055686925078,-0.0030046931805828626
2,92,1.0007162068707276,9.839977930135637e-6,-0.0033229034538820833
2,93,1.0007421547476878,-0.00035932344900063554,-0.0033965143153954318
2,94,1.0007528397996501,-0.0008393581485234451,-0.003029528026001671
2,95,1.0008123830516156,-0.0011911047238326385,-0.0023709933040215563
2,96,1.0008788142110978,-0.0023304487950485176,-0.0006060999254923715
2,97,1.0007813970921062,-0.003817522374937727,0.0018636404617350458
2,98,1.0015386557333037,-0.004588192812043761,0.0038944103036662333
2,99,1.0004405914854289,-0.010826210122585497,0.01615274594355241
2,100,0.9996491515541027,-0.01221174367360076,0.021800153148936387
2,101,1.0037997256629223,0.051534277388010884,0.005626632947998698
3,1,1.0009778450449687,3.282937216634084e-5,-5.605557392103743e-6
3,2,1.0009794751826753,8.350334132881304e-5,-3.9758093733942565e-5
3,3,1.000978987406716,0.00011103995002118519,-0.00010381078589586092
3,4,1.0009785200067114,0.00013495232504031872,-0.00019132062934956474
3,5,1.0009781988732882,0.00016356399956143333,-0.00029876080306139046
3,6,1.0009778243142375,0.0001970179161548848,-0.00042864554637194846
3,7,1.000977332190955,0.00023466796927835095,-0.0005846240002228148
3,8,1.0009767337298292,0.00027638829604950134,-0.0007698050196623412
3,9,1.0009759977559385,0.00032117917599398116,-0.0009866526145947112
3,10,1.0009751055885512,0.00036665494351804484,-0.001236473559736539
3,11,1.0009740625986558,0.0004089450842456254,-0.0015181099598787166
3,12,1.0009729093567765,0.0004427152805498223,-0.0018273364146043566
3,13,1.0009717374727565,0.0004613869953115127,-0.0021559140359243135
3,14,1.0009707018661331,0.00045754745960517606,-0.0024916240926935456
3,15,1.0009700264069163,0.00042355199397402395,-0.0028182674961604688
3,16,1.0009699978559692,0.00035224209321459745,-0.003116716680304719
3,17,1.0009709464570995,0.000237631174188487,-0.0033658598619257948
3,18,1.0009732163469272,7.539405842453377e-5,-0.0035441816083432508
3,19,1.0009771300299748,-0.00013693226950838266,-0.003630731452643211
3,20,1.0009829561375416,-0.00040000000346678726,-0.0036061725050493647
3,21,1.0009908830959289,-0.0007128149410981101,-0.0034529784022554674
3,22,1.0010010012932233,-0.001072834375541085,-0.0031557504531816447
3,23,1.0010132858387963,-0.0014758711094808754,-0.002701122353560464
3,24,1.0010275733450895,-0.00191579260337538,-0.0020782978168125002
3,25,1.0010435252506424,-0.00238415100078421,-0.0012796380232746214
3,26,1.0010605845470246,-0.0028699693050651814,-0.0003019488245878121
3,27,1.001077941164815,-0.003359896057861399,0.0008524544775443505
3,28,1.0010945240511138,-0.0038388244083945055,0.0021745735932051096
3,29,1.0011090353502972,-0.004290947289638282,0.003648411653376716
3,30,1.0011200349044922,-0.0047011123142020605,0.005251131749080425
3,31,1.0011260773805748,-0.005056252660416326,0.006954377992252269
3,32,1.0011258761343116,-0.005346605125947351,0.008725997084728557
3,33,1.001118465083623,-0.005566462359305212,0.010532429625756925
3,34,1.0011033142164705,-0.0057143253353914595,0.012340768445424451
3,35,1.0010803870433658,-0.005792494494146258,0.0141207472808501
3,36,1.0010501223077697,-0.005806257531862483,0.015845856901336386
3,37,1.0010133678318693,-0.005762893258219878,0.017494157302559626
3,38,1.0009712696674948,-0.005670682516048903,0.019048246762247457
3,39,1.0009251602443618,-0.005538068009767231,0.020495144506225048
3,40,1.0008764404729575,-0.00537302322500869,0.021825605638826254
3,41,1.0008264934885487,-0.005182647425571544,0.023033627090550308
3,42,1.0007766070063926,-0.004972952306956491,0.024115604317618333
3,43,1.000727935056024,-0.0047488077218244855,0.025069839472810815
3,44,1.0006814638657835,-0.004513989976651666,0.025895804909157976
3,45,1.000638011396937,-0.004271306716599012,0.02659380391837016
3,46,1.0005982208122735,-0.0040227504166467035,0.027164425110747088
3,47,1.0005625792489803,-0.0037696784240380202,0.02760836564598681
3,48,1.0005314229799525,-0.003512980432556022,0.027926080765412524
3,49,1.0005049612036987,-0.003253255485144116,0.028117721910776973
3,50,1.0004832839931181,-0.0029909574171092866,0.028182981164034355
3,51,1.000466383485508,-0.0027265529031671176,0.02812108159822204
3,52,1.000454162379658,-0.0024606359104547195,0.02793085555803849
3,53,1.000446449392473,-0.002194066127603066,0.027610716082631225
3,54,1.0004430103458546,-0.0019280466974605837,0.027159072543273172
3,55,1.0004435563747467,-0.0016642380760303508,0.026574181759680095
3,56,1.0004477615824243,-0.0014047812866868706,0.02585508451676299
3,57,1.000455261599427,-0.0011523670153353706,0.02500115444386574
3,58,1.0004656817325257,-0.0009101691023303306,0.02401382303297183
3,59,1.000478620905291,-0.0006818339040753175,0.02289548169071233
3,60,1.0004936927954011,-0.00047128032399594577,0.021652334658652933
3,61,1.0005104878430504,-0.0002825787735986145,0.020292045665006007
3,62,1.0005286287064157,-0.00011959710824070797,0.01882810798840918
3,63,1.0005477051265066,1.4218157630541265e-5,0.01727529469781557
3,64,1.0005673454612989,0.00011630226434319723,0.015655989619220302
3,65,1.0005871284785097,0.00018518430561790974,0.013992238549463683
3,66,1.000606676001035,0.00022090837137885241,0.012314606447406017
3,67,1.00062555980981,0.00022507831621709895,0.010649665793940137
3,68,1.0006434074301103,0.00020102228262343252,0.009032210018087109
3,69,1.0006598361951546,0.00015348196205505359,0.007487521903731243
3,70,1.0006745579710152,8.842765827353105e-5,0.006047951468830544
3,71,1.0006873430422751,1.2580773322899789e-5,0.004730293106164936
3,72,1.0006980515363704,-6.715245830413902e-5,0.003557749830401644
3,73,1.0007066850085276,-0.00014469996564006707,0.002533168040719373
3,74,1.0007133812607594,-0.00021518928735307722,0.0016665541596196966
3,75,1.0007183562036641,-0.0002740431564059493,0.0009461905243065007
3,76,1.000721713866712,-0.00031713422832297723,0.00037094965627520684
3,77,1.0007238334870627,-0.00034424663592282935,-8.281451193620326e-5
3,78,1.0007252849182957,-0.0003610129701223336,-0.0004248674846210859
3,79,1.0007264515854424,-0.0003732851094068121,-0.0006809206465679617
3,80,1.000726970076914,-0.0003786730077680297,-0.0008537928464782584
3,81,1.0007264138099452,-0.0003654350426450636,-0.0009664022894348259
3,82,1.000724780315058,-0.0003188808541982554,-0.0010332353770197938
3,83,1.0007225888158278,-0.00022866084275155053,-0.0011020438627536093
3,84,1.0007202496166023,-9.187802081484772e-5,-0.0012102793763076232
3,85,1.0007178759703845,8.771349013075587e-5,-0.0014141694812738735
3,86,1.0007151681638382,0.00029880557036071615,-0.0017411760379488675
3,87,1.000712025013754,0.0005163380019449977,-0.002218469057343343
3,88,1.0007072981812177,0.0007075394443984276,-0.00282435961229899
3,89,1.0007029058295596,0.000832340598025884,-0.0035335661816779875
3,90,1.0006985218006,0.0008386553208652454,-0.004250507069667355
3,91,1.0006962070964303,0.0006895094489319186,-0.004899123628084434
3,92,1.0007004285072327,0.00028629575541662915,-0.005328845482907994
3,93,1.0006944988303117,-0.00035706375917991204,-0.005486151929536453
3,94,1.0007517208467136,-0.001150690537728692,-0.00549306684761922
3,95,1.0007595718661622,-0.002519584733095692,-0.004504493300604661
3,96,1.000630836265261,-0.0036877734564003464,-0.003437772095716404
3,97,1.0010843852428508,-0.005373363334499104,-0.003005474162612455
3,98,1.0007102497599805,-0.012462582974641255,0.0035483983361817894
3,99,0.999544085900955,-0.01699443834606579,0.005921774980087811
3,100,1.0006088631198098,-0.0027427135495145844,-0.0006289138302172108
3,101,1.0005295359500765,0.05519146417972841,-0.0019257855152371558
4,1,1.0009774789260948,5.3537496711983596e-5,-6.875527355729298e-6
4,2,1.0009793237703948,0.00013984604784200616,-4.705615668867836e-5
4,3,1.0009790686874955,0.00019904314300561645,-0.00012358396308494103
4,4,1.00097862855805,0.0002492699001699063,-0.0002319631670182622
4,5,1.0009781519510559,0.00030243696906776164,-0.00036691040600149986
4,6,1.0009778007677619,0.0003642264488338117,-0.0005263185185855199
4,7,1.0009774142161572,0.0004354682387823169,-0.0007123201080155325
4,8,1.000976924559188,0.0005156754045401833,-0.0009271934608228764
4,9,1.0009763506355314,0.0006035830828733494,-0.0011706047824736217
4,10,1.000975694817812,0.0006960047906468371,-0.001439677300512858
4,11,1.0009749846011615,0.0007876361675233387,-0.001727736528072445
4,12,1.0009742831125237,0.000871409414423272,-0.0020239984864865164
4,13,1.0009736926539765,0.0009391460389353217,-0.002313159903388338
4,14,1.0009733601644533,0.0009824969000486903,-0.002576397805260083
4,15,1.000973471386716,0.0009939949220057157,-0.002792359333379863
4,16,1.0009742373864148,0.0009679904224670113,-0.002939247314929206
4,17,1.0009758718515451,0.0009011956164809752,-0.0029962432225946966
4,18,1.0009785680240098,0.0007926612571530541,-0.002945113721985946
4,19,1.0009824791550255,0.0006432241775633329,-0.0027704102293994353
4,20,1.0009877119567578,0.00045470267470804776,-0.0024594651675417735
4,21,1.0009943305528821,0.00022924538043782194,-0.002001281120580083
4,22,1.0010023654963904,-3.0797802565029134e-5,-0.001386023703681703
4,23,1.0010118090427673,-0.000322333168335853,-0.0006045341281238435
4,24,1.0010225833709356,-0.0006404600916961408,0.0003506787239417122
4,25,1.001034479254406,-0.0009773111960135036,0.0014841178270212855
4,26,1.0010470800302742,-0.0013212891803717028,0.0027949603448000687
4,27,1.0010596974973272,-0.0016570797889033115,0.004275380653904661
4,28,1.0010713415584338,-0.0019665825189405127,0.005909066507354685
4,29,1.0010807578369525,-0.0022306783414033525,0.007671484751947269
4,30,1.0010865356301675,-0.002431491451530992,0.009530967285309012
4,31,1.0010872859129418,-0.0025546336838787966,0.011451476363092754
4,32,1.0010818281021718,-0.0025908849674835537,0.013395360689218486
4,33,1.001069361838263,-0.002536974749052952,0.015326603102907546
4,34,1.0010495570777815,-0.002395392990028303,0.017212867367821565
4,35,1.001022586498161,-0.0021734386540622134,0.019027297988593036
4,36,1.0009890652580031,-0.0018818199096381266,0.020748810609268524
4,37,1.000949971286597,-0.0015331562753393834,0.022362328789787764
4,38,1.000906513207174,-0.0011406222208269537,0.02385785833963571
4,39,1.0008600331931998,-0.0007168911960848046,0.025230008644658557
4,40,1.0008118857312618,-0.00027340875426394855,0.026476698104642718
4,41,1.0007633805431844,0.0001800127761819556,0.027598646983107235
4,42,1.0007157033433822,0.0006353520532272627,0.028598183038250843
4,43,1.0006699075729406,0.0010863427369918004,0.02947898202063987
4,44,1.000626871513152,0.0015283244288442305,0.030245097053257158
4,45,1.0005873237497458,0.0019580183378578413,0.030900971848396182
4,46,1.0005518194428387,0.0023732831726373926,0.03145065440473673
4,47,1.0005207815261252,0.0027728603835374542,0.03189801662903283
4,48,1.0004944820830255,0.0031561423096491243,0.03224607108131483
4,49,1.0004730870369007,0.0035229492889969575,0.03249732302979213
4,50,1.0004566355387705,0.0038733411959402646,0.032653121822399406
4,51,1.0004450821991375,0.004207432071470009,0.03271409414787726
4,52,1.0004382732096824,0.004525240088393166,0.032679496398649845
4,53,1.0004359845387163,0.004826523842745168,0.03254770785991312
4,54,1.0004378975481338,0.005110659576395621,0.03231560261379127
4,55,1.0004436342125425,0.005376485953036739,0.03197911106107359
4,56,1.0004527378803922,0.005622212146230255,0.03153270832388658
4,57,1.0004647078237536,0.005845279084253454,0.030970072067944356
4,58,1.0004789925255764,0.006042333467353077,0.030283894025359567
4,59,1.0004950249406674,0.006209149748587618,0.029466639858084846
4,60,1.0005122347220083,0.006340744951679716,0.028511011374791805
4,61,1.0005300803261252,0.006431443224299613,0.027410682260035502
4,62,1.0005480807580454,0.006475227782948784,0.026161809511805675
4,63,1.0005658302000415,0.006466031914094771,0.02476328863908601
4,64,1.0005830393491293,0.006398374758323875,0.023219655930236695
4,65,1.0005995088423538,0.006267872760724835,0.021539863232386144
4,66,1.0006151677965796,0.006072051609805904,0.019741714511443326
4,67,1.0006299851276532,0.005810873675363472,0.0178476247722216
4,68,1.0006440093389184,0.00548739066624683,0.015890600491433746
4,69,1.000657232380211,0.005107901341933597,0.01390539760057494
4,70,1.0006696683791283,0.004682024526388485,0.011936216470466306
4,71,1.0006812003665644,0.004222166936933154,0.010022656200876195
4,72,1.0006917245324853,0.003742850181234673,0.008210029668527151
4,73,1.0007010240977114,0.0032593705985871067,0.006530971394453516
4,74,1.0007090135884287,0.002786493549572716,0.005019171074291707
4,75,1.000715606709509,0.0023376872505492773,0.0036892456906582136
4,76,1.000720788573035,0.0019252386721420787,0.0025562462277874108
4,77,1.0007244390692613,0.0015578796963620922,0.0016147706856074124
4,78,1.0007268598802495,0.001236087479664918,0.0008585578173071325
4,79,1.0007286380458504,0.0009527546996365298,0.0002620486401032274
4,80,1.0007301329335214,0.0007052549781432654,-0.00018915284595503345
4,81,1.0007308651100975,0.0005069522734070762,-0.000515656349637148
4,82,1.0007303179021283,0.00038554614386370004,-0.0007322845024313776
4,83,1.0007286729939844,0.000367889859346682,-0.0008828139667240162
4,84,1.000726690282081,0.00046491074675067195,-0.0010209863172970285
4,85,1.0007251738153444,0.0006680978744503413,-0.0012183770579624997
4,86,1.0007243991569414,0.0009449349161532348,-0.0015213902299485468
4,87,1.0007232909461679,0.0012405944909700136,-0.001952671985705651
4,88,1.0007224878506646,0.0014848362914868108,-0.0024840088308213724
4,89,1.0007202112528184,0.001595616930778678,-0.0030398087126206805
4,90,1.0007196638218268,0.001502646831253159,-0.0035305843096370684
4,91,1.00071880559099,0.001112403749596909,-0.003803208806300612
4,92,1.0007105811413821,0.0004716078807172098,-0.0038384769881329465
4,93,1.0007494496542795,-0.0003836196628219472,-0.0037435259132732584
4,94,1.0007253250275516,-0.001873759885673553,-0.0029356444418154187
4,95,1.0006870599378617,-0.00315840254352428,-0.0024695423560043544
4,96,1.001011127939333,-0.004476343910071451,-0.002098164963417274
4,97,1.0006105717118414,-0.009822802678457176,0.0025083732941066253
4,98,1.000082814998028,-0.014344100361135256,0.0030191841836518132
4,99,1.0009196391887492,-0.010685967969458681,-0.0020845846660976133
4,100,1.001307923876767,-0.0015317447199675713,-0.0024745958289140828
4,101,0.9998084989911512,0.05208634464453407,-0.0005515347717217466
5,1,1.0009771948363948,7.379276442829935e-5,-7.817659145782413e-6
5,2,1.0009792259250727,0.00020152486866467536,-5.38660460104137e-5
5,3,1.000978942145129,0.00029634925982563725,-0.00014125307063995383
5,4,1.000978639424186,0.00037631261666925457,-0.0002629971043227565
5,5,1.0009782044932978,0.00045347062872796854,-0.00041352634958620265
5,6,1.0009777717629615,0.0005361378370962054,-0.0005884450850479157
5,7,1.0009774334301,0.0006275214444022987,-0.0007850582654951737
5,8,1.0009770460374032,0.0007247848446720794,-0.0010024114767206301
5,9,1.0009765536466468,0.0008218257237438729,-0.0012366241010096106
5,10,1.0009759815819037,0.0009100087680047752,-0.0014795856703099615
5,11,1.0009753414617122,0.0009778041323827151,-0.0017187322766102674
5,12,1.0009746643994293,0.0010115859736271225,-0.0019378245049754864
5,13,1.0009740135213683,0.0009971661893416548,-0.002117327121773943
5,14,1.0009734874308414,0.0009215431900122685,-0.0022365554842347273
5,15,1.0009732221029812,0.0007745068549889868,-0.0022752173375618755
5,16,1.0009733851451412,0.0005496523012866868,-0.0022157134545614347
5,17,1.0009741632917168,0.00024449143768876365,-0.002043691379716768
5,18,1.0009757542640991,-0.00014035085538287542,-0.0017483312143322213
5,19,1.0009783663835843,-0.0006024813528858946,-0.0013205871552313562
5,20,1.0009822333876612,-0.0011389480271579,-0.0007517402450640544
5,21,1.0009876286777097,-0.0017466369806771063,-3.1365575866949614e-5
5,22,1.0009948581400878,-0.0024214891809767394,0.0008525972039653136
5,23,1.0010042044106953,-0.003156722483588454,0.0019129367729868257
5,24,1.0010158176322927,-0.003940737090913729,0.003159787655946655
5,25,1.0010295783871546,-0.004755603989206929,0.004597330098863065
5,26,1.0010449651994213,-0.005576842333445846,0.006219839101034011
5,27,1.0010609826374461,-0.006374815480915169,0.008010005301490257
5,28,1.0010761750284554,-0.007117596504682523,0.009938397307180631
5,29,1.0010887721404385,-0.007774729648684586,0.011966179175922
5,30,1.0010969099715892,-0.008320962516490522,0.014048539592595728
5,31,1.0010989106209394,-0.00873905534703337,0.016139889563053577
5,32,1.0010934939870766,-0.009021075240103468,0.018197563773708708
5,33,1.0010799430829223,-0.009168124242558542,0.020185521855157894
5,34,1.0010581193692205,-0.009188822998526412,0.02207536656274246
5,35,1.00102844694441,-0.009097130351613176,0.023847300511101684
5,36,1.0009917716901253,-0.008910014743645953,0.025488755576800227
5,37,1.000949272040226,-0.008645402601623843,0.026993880381422995