TITLE="CMs_NON_Orthogonal Re = 10000.0"
VARIABLES = X,Y,Rho,U,V
ZONE
I = 101	J = 101
F=POINT
1,1,1.0009742847036927,1.7341324097580985e-6,-2.7904554343855725e-6
1,2,1.0009753654584133,5.336391290593485e-6,-1.801096622891252e-5
1,3,1.0009752897599309,5.618087079205533e-6,-3.776879046450487e-5
1,4,1.0009755384991839,6.349467378579453e-6,-6.0556212993347305e-5
1,5,1.00097580481275,7.044929998368888e-6,-8.785481690789019e-5
1,6,1.0009760756347508,7.3834774782247e-6,-0.00012072498463695796
1,7,1.0009763743889275,7.039566236925543e-6,-0.00016000626538125584
1,8,1.0009767146498778,5.5660531657928095e-6,-0.0002068091956328748
1,9,1.0009770894735077,2.298893532527214e-6,-0.00026220854222997847
1,10,1.0009774830543345,-3.6759885062661077e-6,-0.0003273951784629208
1,11,1.0009778699782041,-1.3528543259220734e-5,-0.000403220616752212
1,12,1.0009782254601483,-2.8680760343671505e-5,-0.0004902561883348591
1,13,1.0009785352132057,-5.078281151293328e-5,-0.0005883036422767387
1,14,1.000978810665702,-8.16585118767167e-5,-0.0006964092192525084
1,15,1.000979105508869,-0.00012322586634814071,-0.0008124223282373406
1,16,1.000979532931028,-0.00017737474159752305,-0.0009330653946566043
1,17,1.0009802755882649,-0.0002458345395529063,-0.0010536700593443001
1,18,1.000981585337957,-0.00033002925728671284,-0.0011684103413190173
1,19,1.0009837665388506,-0.00043096160722507295,-0.0012702735437398471
1,20,1.0009871462935631,-0.0005491125859868856,-0.0013514313616044989
1,21,1.0009920318192207,-0.0006843817218259124,-0.0014033655834495178
1,22,1.0009986626608949,-0.0008360430787660169,-0.0014172907999442804
1,23,1.0010071593689127,-0.0010027358118280274,-0.0013843840683550087
1,24,1.0010174757587156,-0.001182471380042037,-0.0012962818347337765
1,25,1.0010293559737018,-0.0013726797428474126,-0.0011454768920877933
1,26,1.0010423034713938,-0.0015702856441190893,-0.0009259604466921734
1,27,1.0010555661318223,-0.0017718325532911515,-0.0006337695904236633
1,28,1.0010681498434066,-0.0019736384299567176,-0.0002676344832540264
1,29,1.0010788681267189,-0.0021719821778802017,0.00017060829887591167
1,30,1.0010864307668899,-0.002363295836487622,0.0006757113618272559
1,31,1.001089560040866,-0.0025443672572458345,0.0012390718482504215
1,32,1.0010871207220813,-0.00271254307148113,0.0018490265859219782
1,33,1.0010782440016897,-0.0028659005872938782,0.002491575883527487
1,34,1.0010624269741155,-0.0030033127848608306,0.003151310565744426
1,35,1.0010395889543786,-0.0031243944872949908,0.003812469074243125
1,36,1.0010100775561686,-0.003229361100142651,0.004459850957665079
1,37,1.0009746250496945,-0.003318860039106872,0.005079585045813546
1,38,1.000934268764891,-0.003393803724595377,0.00565962855126324
1,39,1.0008902500325874,-0.0034552305498176923,0.006190065805498893
1,40,1.0008439116059813,-0.0035041934659258674,0.006663176477491836
1,41,1.0007966035397031,-0.0035416840926131266,0.007073361438228704
1,42,1.0007496098825501,-0.0035685818235615765,0.007416948706742069
1,43,1.0007040937756206,-0.003585630241258618,0.007691938863409272
1,44,1.0006610665754583,-0.003593428156531228,0.007897737830258487
1,45,1.0006213695024968,-0.003592437316121459,0.008034875867082633
1,46,1.0005856738705374,-0.00358299512819378,0.008104790167284397
1,47,1.0005544828657236,-0.0035653362633552843,0.008109592204012252
1,48,1.000528147254966,-0.0035396130070293633,0.008051953842117255
1,49,1.0005068722319035,-0.003505920694770393,0.007934934346569323
1,50,1.0004907383685024,-0.003464318186166683,0.007761983338201721
1,51,1.0004797044778002,-0.003414853214874894,0.007536800197798474
1,52,1.0004736304634325,-0.0033575789905444047,0.007263455119464871
1,53,1.0004722722482553,-0.003292579493508723,0.006946227203084028
1,54,1.000475308493011,-0.0032199778555366946,0.006589853708309986
1,55,1.000482326465674,-0.003139965012072404,0.006199261233839821
1,56,1.000492858070536,-0.003052790880958462,0.005779984131307338
1,57,1.0005063563312502,-0.002958805951513854,0.005337646626599183
1,58,1.0005222480095217,-0.0028584157707257775,0.004878662824084611
1,59,1.0005398994162065,-0.0027521595356406517,0.00440921936230194
1,60,1.0005586927493821,-0.002640587694759126,0.003936527840269481
1,61,1.0005779775580894,-0.0025244324852138327,0.0034668473011697986
1,62,1.0005971748759594,-0.0024043311286025943,0.003007891161830794
1,63,1.0006157072327946,-0.0022811964580894775,0.0025650269320023266
1,64,1.0006331292286088,-0.002155651647760229,0.002146054520560294
1,65,1.0006490277940605,-0.0020287710414469023,0.0017540286678688632
1,66,1.0006631677542577,-0.0019010650091714283,0.001396534181108669
1,67,1.0006753580252614,-0.001773719038513926,0.0010727527048737112
1,68,1.0006856043372017,-0.0016470977440039508,0.0007899984890728763
1,69,1.000693941071165,-0.0015224106501656037,0.0005425477640534312
1,70,1.000700554118989,-0.0013999675706792868,0.0003376137287666062
1,71,1.0007056279997222,-0.0012808027022147177,0.00016474105111208002
1,72,1.0007094961799112,-0.001165232231864486,3.106710632131113e-5
1,73,1.0007123971936611,-0.0010542557027471413,-7.726513954702725e-5
1,74,1.0007145189945468,-0.0009482140441746329,-0.00015236681181637503
1,75,1.0007160629400471,-0.0008475819093835547,-0.00020990652963627895
1,76,1.0007174448300484,-0.0007525471837430395,-0.00024174291325901597
1,77,1.0007188467612493,-0.0006640048997850352,-0.0002641559830588494
1,78,1.00072008008801,-0.0005825387106016688,-0.0002660246389881199
1,79,1.0007208689871323,-0.0005084173607542193,-0.0002616248961387001
1,80,1.0007213676604378,-0.0004408705688474801,-0.00023848776714199162
1,81,1.000721945276075,-0.00037911838105843433,-0.00021367832837563305
1,82,1.000722946015292,-0.00032201756761154215,-0.00017688537011283865
1,83,1.0007243989524286,-0.0002689866578389917,-0.00014822382498930745
1,84,1.0007262242352493,-0.0002192568614244522,-0.00011737032460044695
1,85,1.0007283038904966,-0.0001732143935197243,-0.00010567993021998397
1,86,1.000730398870805,-0.0001309052838186091,-0.00010116489655510413
1,87,1.000732551671517,-9.463902493632868e-5,-0.0001250588255174396
1,88,1.0007342406936393,-6.592960686886634e-5,-0.00015813485627813164
1,89,1.0007354952448158,-4.65724206474115e-5,-0.00021438522518043765
1,90,1.000736209672362,-4.024372543944966e-5,-0.00025912008446186784
1,91,1.0007361991361254,-4.168288628929753e-5,-0.0002930172380862523
1,92,1.0007453199584788,-7.097446671664695e-5,-0.0002575737716778217
1,93,1.000748922337947,-0.00013035676489188245,-8.985084443418453e-5
1,94,1.0007500392512405,-0.0002106001530412195,0.00029780880244453643
1,95,1.0007498217343287,-0.0002988603620559384,0.0009512108584832337
1,96,1.000809647344109,-0.0002696937122306025,0.0017229938279163207
1,97,1.000996521002747,-0.0010273212332493926,0.003407210986371275
1,98,1.0003098888036661,-0.0010909312908804882,0.006592073330970979
1,99,1.000773233302283,0.0005630630511442652,0.007655760197635097
1,100,1.001950580109262,-0.007693040569919967,0.01641235310500176
1,101,0.9965360793701841,0.02652334802808484,0.013993939276814995
2,1,1.0009730033293707,1.8506115155054243e-5,-5.777129541117155e-6
2,2,1.0009740599585906,3.9869960330129255e-5,-3.650526253243686e-5
2,3,1.0009734705416393,4.788905539248012e-5,-8.581810297345708e-5
2,4,1.0009732857473523,5.71464302207728e-5,-0.0001463693782997026
2,5,1.000973043684542,6.983344376257453e-5,-0.00021971317829615097
2,6,1.0009726784171205,8.520431722084117e-5,-0.0003090673553540465
2,7,1.000972234061214,0.00010371311022552036,-0.00041682305152281534
2,8,1.000971690561083,0.00012616008099929524,-0.0005457960257065767
2,9,1.0009710243685606,0.00015326655695087563,-0.000698778393565615
2,10,1.000970211267668,0.00018555630827866052,-0.0008783436382608119
2,11,1.0009692420167537,0.00022326624890860248,-0.0010859688715400928
2,12,1.0009681345410288,0.0002662991836886279,-0.0013216374061465934
2,13,1.0009669531704244,0.00031419603493590366,-0.0015829636827871785
2,14,1.0009658250698072,0.00036615278959311817,-0.001864918960633281
2,15,1.000964956615767,0.0004210843253574877,-0.0021592811511279997
2,16,1.0009646372059475,0.0004777330864995012,-0.0024548208948177055
2,17,1.0009652324825238,0.0005347999448690691,-0.00273736567631563
2,18,1.0009671573649246,0.0005910514560428746,-0.0029905466010907242
2,19,1.0009708392963061,0.0006453746738126705,-0.0031963189813000487
2,20,1.000976669830674,0.0006967734921347874,-0.0033358804618893382
2,21,1.0009849586180617,0.0007443418427578563,-0.0033901932628502196
2,22,1.0009958865835538,0.0007872648301941528,-0.003340750291778441
2,23,1.0010094676018293,0.0008249041544335353,-0.003170040539371308
2,24,1.0010255106549832,0.0008569881524925402,-0.002862382547983714
2,25,1.0010435894756737,0.0008838824712710842,-0.0024046925097497454
2,26,1.0010630150532887,0.000906859540735657,-0.0017876703474563583
2,27,1.0010828286127285,0.0009282656447294071,-0.0010068521683952263
2,28,1.001101820138249,0.0009515005140580089,-6.374287000657221e-5
2,29,1.0011185889819771,0.0009807821994173129,0.0010335645457495138
2,30,1.0011316370620873,0.0010207142598540504,0.002270122286793053
2,31,1.0011394980544024,0.0010757149366317441,0.0036246514044228637
2,32,1.0011408788627865,0.0011494076153863108,0.005070577025825301
2,33,1.0011348021673385,0.0012441113140047395,0.00657773300909326
2,34,1.0011207109550668,0.0013605505521791209,0.00811424433152133
2,35,1.0010985278086628,0.0014978353201348582,0.009648505253839165
2,36,1.0010686465157446,0.0016536752154234042,0.011150791658597992
2,37,1.001031878297822,0.0018247453755473274,0.012594525002097592
2,38,1.0009893513140724,0.002007106512165704,0.013956989238039877
2,39,1.0009424029616718,0.0021966018375747117,0.015219652755462722
2,40,1.0008924625158877,0.002389178173167217,0.0163680973789599
2,41,1.0008409605117925,0.002581113204819254,0.017391699901692707
2,42,1.0007892466729267,0.0027691468405947406,0.018283177486907595
2,43,1.0007385460305722,0.002950535346566499,0.019038011819677136
2,44,1.0006899203762405,0.0031230422476831894,0.019653964644341014
2,45,1.0006442654551408,0.0032848929196938807,0.02013048745758668
2,46,1.0006023006174245,0.0034347002365967333,0.020468413158406785
2,47,1.0005645901252984,0.003571387220063473,0.020669434148701996
2,48,1.0005315425120287,0.003694099277892615,0.020736068205076376
2,49,1.0005034425560473,0.0038021345991698123,0.020671177272240427
2,50,1.0004804470207131,0.003894867151465898,0.020478266458055776
2,51,1.0004626214325394,0.003971703378899665,0.020160947009782715
2,52,1.000449924129883,0.0040320233910181745,0.01972364180685819
2,53,1.0004422486575406,0.004075174079531677,0.019170837790534495
2,54,1.0004393906380205,0.004100429582397251,0.01850831948239233
2,55,1.0004411017256343,0.00410703121905071,0.017741978178668284
2,56,1.000447033843117,0.004094166606316918,0.016879765153268642
2,57,1.0004568151593212,0.004061069164745824,0.0159297053229128
2,58,1.0004699645458084,0.0040070116866777585,0.014902852843849462
2,59,1.0004860046985493,0.003931474922198075,0.013809987131719286
2,60,1.0005043369257378,0.003834141117212127,0.01266597673916451
2,61,1.0005244107942015,0.0037151253273364285,0.011484428610110703
2,62,1.0005455459265968,0.003574936251604086,0.01028404678719258
2,63,1.00056717903824,0.003414735263069677,0.009080303289049577
2,64,1.0005886157535542,0.0032362206177727177,0.007894644366129557
2,65,1.0006093709333423,0.0030418403455677256,0.006742118126469977
2,66,1.0006288321235954,0.002834563570673713,0.00564461632977975
2,67,1.0006466952326034,0.0026179967791543327,0.004613416148947838
2,68,1.0006625252426038,0.002396031999948138,0.003667850519422642
2,69,1.0006762755448038,0.0021727917069812065,0.0028120399619276796
2,70,1.0006877448785847,0.0019522628785588816,0.0020601438923506504
2,71,1.000697137965402,0.0017383455241752228,0.0014071643130326942
2,72,1.0007044592588015,0.0015343065852052263,0.0008609550690744421
2,73,1.0007101499179818,0.001342489924263434,0.00040765977214024155
2,74,1.0007143192027348,0.001164486146754748,5.025039967674894e-5
2,75,1.0007173328776864,0.001002094181106345,-0.00023095281633041102
2,76,1.0007193330268223,0.0008563549358121544,-0.00043606285160596844
2,77,1.0007210245183602,0.0007258133543627552,-0.0005889112204759996
2,78,1.0007225274523266,0.0006071381854720686,-0.0006877006661551432
2,79,1.0007238021707234,0.000498731961214065,-0.0007511849835771701
2,80,1.0007243008060904,0.0004026324660195597,-0.0007718820680233531
2,81,1.0007242438212327,0.00032265217036242776,-0.0007723878609984339
2,82,1.0007237774767983,0.00026184105962388115,-0.0007550582651132565
2,83,1.0007234485924756,0.00022145997161060956,-0.0007554966380222187
2,84,1.000722974551908,0.00020114645956879017,-0.0007828533081009734
2,85,1.000722390777553,0.0002005534387347504,-0.0008757427668099076
2,86,1.000721240171872,0.00021723856654515142,-0.001039220784981289
2,87,1.0007192043651674,0.0002457723449395082,-0.0013027538666620915
2,88,1.000716592439838,0.0002745838921348888,-0.0016511540680930086
2,89,1.000712932202341,0.0002874307699034688,-0.002081846401393916
2,90,1.0007098556807326,0.00026945481306917966,-0.002544855147056463
2,91,1.00071040715778,0.00018575059518806416,-0.0029847185121125814
2,92,1.0007152763920333,4.515555689539523e-6,-0.0032954195189918165
2,93,1.0007412168274048,-0.00036408578246349346,-0.003362435437615567
2,94,1.0007517499564835,-0.0008422038110654178,-0.0029902489101020857
2,95,1.0008108266001847,-0.0011898075371420752,-0.002330514031492764
2,96,1.0008767854382055,-0.0023233680035336496,-0.0005703205124507658
2,97,1.000778967352909,-0.0038049224795873573,0.0018893059824176134
2,98,1.001535601950463,-0.00457153792714299,0.003904978598132405
2,99,1.0004377492324996,-0.01081751587060633,0.016151995547527585
2,100,0.999647970766826,-0.012213062279849139,0.0217991846566402
2,101,1.0037981481776406,0.05153305899906652,0.005626381799545761
3,1,1.0009730456548214,3.3180178913133993e-5,-5.669018549544551e-6
3,2,1.0009746960741719,8.443537698811629e-5,-4.019499993137226e-5
3,3,1.000974200682434,0.00011209931905569615,-0.00010487499466695043
3,4,1.0009737238151835,0.00013591123594323617,-0.000193051056797062
3,5,1.000973400115677,0.00016445916461770469,-0.00030110297416256293
3,6,1.0009730250734559,0.0001978840008892959,-0.00043159026909925273
3,7,1.000972531427371,0.00023546860908199671,-0.0005882091035702331
3,8,1.000971931113274,0.00027705741064007835,-0.0007740813702986296
3,9,1.0009711939241501,0.00032163348630057364,-0.000991680795354103
3,10,1.0009703015366513,0.0003667742054894153,-0.0012423320777112544
3,11,1.0009692593702557,0.0004085526655641911,-0.00152489140699063
3,12,1.0009681081174184,0.0004415725818855107,-0.0018351382329206882
3,13,1.0009669397366299,0.0004592007840357844,-0.0021648307588497243
3,14,1.0009659097416568,0.00045398685399593834,-0.0025017523325875815
3,15,1.00096524283054,0.00041827131944499987,-0.002829722910939782
3,16,1.000965226760222,0.0003449019070202374,-0.0031296614643194567
3,17,1.0009661928999631,0.00022790722553114157,-0.0033805264675575058
3,18,1.0009684867927824,6.296763958626261e-5,-0.003560879459725325
3,19,1.00097243306235,-0.00015240008150624283,-0.0036498221083466945
3,20,1.0009783037690414,-0.0004188980556366654,-0.003628013671893123
3,21,1.0009862924569672,-0.0007355987935082174,-0.0034778470303698634
3,22,1.000996496116353,-0.001100016357545212,-0.003183768259195339
3,23,1.0010088969339597,-0.0015079797072509147,-0.002732205163302155
3,24,1.0010233374962598,-0.0019533092090080915,-0.0021121449201148314
3,25,1.0010394823880797,-0.0024274405558451138,-0.0013157625924736145
3,26,1.0010567736698548,-0.002919222986689268,-0.00033974081118936226
3,27,1.0010743958135495,-0.003415099239893738,0.000813650020043967
3,28,1.0010912683104136,-0.003899754718101741,0.002135378215800747
3,29,1.001106081056907,-0.004357199634585246,0.0036093481144029048
3,30,1.0011173805379732,-0.004772142988833047,0.005212577548721237
3,31,1.0011237087295548,-0.005131433269072551,0.006916541034714807
3,32,1.0011237686561458,-0.00542527761416857,0.008688912093738484
3,33,1.0011165874277885,-0.005647987953961885,0.010495972966290564
3,34,1.0011016322829578,-0.00579812228622026,0.012304685781649618
3,35,1.0010788677740747,-0.005878062144369527,0.014084688973338696
3,36,1.001048736680319,-0.005893186802042369,0.015809414676098532
3,37,1.0010120926543085,-0.005850865718270209,0.017456898348596782
3,38,1.0009700881978592,-0.005759461267460361,0.019009741673767774
3,39,1.0009240617549855,-0.005627483920500857,0.020454988599232716
3,40,1.0008754191428977,-0.005462959478568098,0.021783433234228242
3,41,1.00082554688682,-0.0052730246990953635,0.022989120212578252
3,42,1.0007757345346435,-0.005063715802864701,0.02406849691574585
3,43,1.0007271364717052,-0.004839916815122256,0.025019918489613612
3,44,1.0006807381159475,-0.004605410346821608,0.02584290998190915
3,45,1.000637355699137,-0.0043630049702468665,0.02653782560182488
3,46,1.0005976301385673,-0.004114690449760459,0.0271053045206935
3,47,1.000562046006627,-0.0038618194619108063,0.027546092841341362
3,48,1.0005309370795923,-0.003605275748093761,0.027860697337473213
3,49,1.0005045101808125,-0.003345652003517406,0.0280493207292353
3,50,1.0004828535070036,-0.003083394997624779,0.028111713937598298
3,51,1.0004659576881436,-0.0028189639281659584,0.028047159498281037
3,52,1.0004537247074303,-0.0025529436464802294,0.027854563187468692
3,53,1.0004459829939931,-0.0022861830504225787,0.02753241036490574
3,54,1.00044249904699,-0.002019870791262261,0.027079203925960353
3,55,1.0004429849560545,-0.0017556490995200254,0.026493285494454268
3,56,1.000447116789511,-0.001495634507441359,0.025773809012721683
3,57,1.0004545320231086,-0.001242487585204689,0.024920234326612573
3,58,1.0004648587392357,-0.0009993441014968273,0.02393411375920737
3,59,1.0004776978968528,-0.0007698068496261056,0.02281789839974052
3,60,1.0004926660328053,-0.0005577446849448159,0.02157789328767182
3,61,1.0005093550510045,-0.0003671771176745195,0.02022174844394421
3,62,1.000527389990105,-0.00020192154329184256,0.018762997736258717
3,63,1.0005463612096388,-6.538382338678893e-5,0.01721627133462807
3,64,1.0005658990992774,3.9899234461628476e-5,0.015603898761335475
3,65,1.0005855828053167,0.00011246083143465466,0.013947616057530662
3,66,1.0006050365302692,0.00015232375725135117,0.01227784196901258
3,67,1.0006238331747006,0.00016103696751116597,0.010620688593966948
3,68,1.0006416034166008,0.00014184554384607962,0.009010778241288035
3,69,1.000657966369479,9.93798089101015e-5,0.007472869789976657
3,70,1.0006726362786436,3.948122497892139e-5,0.0060392405699422474
3,71,1.0006853849051296,-3.1266874933202076e-5,0.004726220718532906
3,72,1.00069607281692,-0.00010608251895875664,0.0035571529495726983
3,73,1.000704699655951,-0.0001789878914947988,0.0025345766322326414
3,74,1.0007113983481812,-0.00024519153252869206,0.0016688906723478297
3,75,1.000716385756386,-0.0003001988923100064,0.0009481931198306989
3,76,1.0007197623032884,-0.00033988822265601157,0.00037192737395615286
3,77,1.0007218963456137,-0.000363895107074476,-8.362942629282582e-5
3,78,1.0007233482180844,-0.0003777121383213451,-0.0004276509068915773
3,79,1.0007245186384246,-0.00038731794121004245,-0.000686175687218219
3,80,1.0007250608001708,-0.00039066776237101954,-0.0008615399760975091
3,81,1.000724546179771,-0.00037625478732989596,-0.0009766998597340586
3,82,1.0007229485676186,-0.0003293236547108824,-0.001045099539802786
3,83,1.0007207777642884,-0.00023926661958150025,-0.0011142950450823625
3,84,1.000718449731725,-0.0001029179104723232,-0.0012209917184795825
3,85,1.0007161013255028,7.619098964833846e-5,-0.0014218904797871268
3,86,1.0007134484752722,0.00028690004760507644,-0.0017443517061084912
3,87,1.0007104011312262,0.0005040649662564906,-0.002216437245022888
3,88,1.0007057966604715,0.0006946625972156067,-0.0028163283884046447
3,89,1.0007015427863624,0.0008185181452952054,-0.003519382373574123
3,90,1.0006973038613136,0.0008236727090661333,-0.004229688402517167
3,91,1.0006950892045823,0.0006737043513607543,-0.0048718503148841704
3,92,1.0006993965243245,0.00027086765529552866,-0.005295734701765719
3,93,1.0006934633970408,-0.00037019785623367544,-0.005448765997154419
3,94,1.0007504961753206,-0.00115820255901528,-0.005454120661861037
3,95,1.0007580898890096,-0.002517781318343254,-0.004468460066174856
3,96,1.0006290296359084,-0.003674282440744406,-0.0034083918126606456
3,97,1.0010824249963313,-0.005347881226053393,-0.0029896287410123364
3,98,1.0007084066903122,-0.012437186459619554,0.0035547828233686626
3,99,0.9995435473716079,-0.016984599032213495,0.0059260123488658195
3,100,1.0006074569589019,-0.0027439153765870658,-0.0006280189857902737
3,101,1.000527486353011,0.055189222711754735,-0.0019261944231728871
4,1,1.0009726815632987,5.418168671145836e-5,-6.937359326559886e-6
4,2,1.0009745469044622,0.00014139872067161154,-4.7464551991460866e-5
4,3,1.0009742877377166,0.00020090229865355694,-0.00012456935842057498
4,4,1.0009738387100855,0.0002510669501473492,-0.00023359062370770012
4,5,1.000973356813401,0.00030422092483132633,-0.00036915137633861236
4,6,1.0009730044675924,0.00036615575553882145,-0.0005291501828299797
4,7,1.0009726167236144,0.0004376485432123615,-0.0007157823404149626
4,8,1.0009721247470837,0.0005181996617605582,-0.0009313734697765266
4,9,1.000971548801904,0.000606589243539915,-0.0011756139215881795
4,10,1.0009708921064424,0.0006996738904091394,-0.0014456543446141816
4,11,1.000970182346657,0.00079217337637571,-0.0017348493053091823
4,12,1.00096948282303,0.0008770435480923476,-0.00203243710491551
4,13,1.0009688962995027,0.000946149270135178,-0.0023231303832858484
4,14,1.000968570494648,0.0009912139131499752,-0.0025881277974743686
4,15,1.0009686921069259,0.0010048674659704944,-0.0028061139997830266
4,16,1.0009694731725371,0.0009815606922807339,-0.0029553461828380864
4,17,1.0009711282306715,0.000918074022770834,-0.0030150599495707073
4,18,1.000973851358513,0.000813456378366877,-0.002967046418992966
4,19,1.0009777969797193,0.0006684503723184806,-0.002795818670471784
4,20,1.000983073807328,0.00048469397704546023,-0.002488589860990277
4,21,1.0009897490081567,0.0002641047918079695,-0.002034168300555762
4,22,1.0009978569574354,8.803064512230417e-6,-0.001422483307876633
4,23,1.0010073937221895,-0.00027829613200742054,-0.0006441444017037528
4,24,1.0010182843681454,-0.0005923886854137829,0.0003085208724681305
4,25,1.0010303208588232,-0.0009256157771086914,0.0014401176244715982
4,26,1.0010430857200674,-0.0012663162947511698,0.002749837340384087
4,27,1.0010558879526976,-0.0015990670272060317,0.004229791184354664
4,28,1.0010677329404198,-0.0019056420858502398,0.005863545181799275
4,29,1.0010773603821232,-0.0021668050231530827,0.007626408848105506
4,30,1.0010833528682836,-0.0023645886543951695,0.00948654191023059
4,31,1.001084314760982,-0.002484551024994046,0.011407739355015527
4,32,1.0010790600452186,-0.0025174603801556917,0.013352202391181237
4,33,1.0010667849546226,-0.0024600742353205487,0.015283798029802802
4,34,1.001047158499607,-0.0023149421325296387,0.01717011056533125
4,35,1.0010203546810301,-0.00208944246106064,0.018984242616482825
4,36,1.0009869916430225,-0.0017943701682612751,0.020705100113941614
4,37,1.000948051068079,-0.0014424281760595879,0.02231762328998926
4,38,1.0009047452712276,-0.0010468633192430323,0.02381185161845348
4,39,1.0008584193659915,-0.0006204063336977131,0.02518243915912658
4,40,1.000810429655877,-0.0001745439459553251,0.026427352111868526
4,41,1.0007620863738296,0.000280885174234493,0.027547358931297936
4,42,1.0007145745252037,0.0007378456773885629,0.028544830797951528
4,43,1.0006689457506286,0.0011900664182217253,0.029423482569986094
4,44,1.0006260757355254,0.001632888381278352,0.030187398744557687
4,45,1.0005866898664062,0.0020630375427103313,0.030841049372825453
4,46,1.0005513398274881,0.0024783786254235617,0.03138850095144077
4,47,1.0005204449201086,0.0028776585524962536,0.03183364038561516
4,48,1.0004942737408271,0.003260273629912005,0.03217948888368127
4,49,1.000472988885079,0.0036260458432458443,0.032428559887339885
4,50,1.0004566266374355,0.003975034551882115,0.032582207405119225
4,51,1.0004451391161844,0.004307351100538802,0.03264106680075803
4,52,1.0004383707536815,0.004623010091611182,0.03260440426984651
4,53,1.000436096301432,0.00492176636978342,0.032470619010556735
4,54,1.0004379969151571,0.005202994914331587,0.032236613225246326
4,55,1.0004436950323043,0.005465536984130675,0.031898362574154626
4,56,1.0004527357406736,0.005707612450930484,0.031450405059445505
4,57,1.0004646207112329,0.005926682780114123,0.030886503284271713
4,58,1.0004788022288906,0.006119430591104924,0.030199461144756034
4,59,1.0004947173551215,0.006281682595011945,0.029381874172288155
4,60,1.0005118010316554,0.006408529786846782,0.028426606110980794
4,61,1.0005295163932493,0.00649438972395702,0.027327485290570833
4,62,1.000547387639069,0.006533360686096621,0.0260808498735009
4,63,1.0005650121639569,0.0065195039602001965,0.02468571284980706
4,64,1.0005821036881053,0.006447475551985713,0.0231467398391188
4,65,1.0005984627718534,0.006313021014542166,0.021472861792436446
4,66,1.0006140184862553,0.006113777192641221,0.019681868899914107
4,67,1.0006287368576174,0.00584977980461046,0.017795919190303856
4,68,1.0006426652483194,0.0055241067544857195,0.0158478120090321
4,69,1.000655792934166,0.005143023151706029,0.013871794814042602
4,70,1.000668135330855,0.004716057331477331,0.01191173210284341
4,71,1.0006795761873615,0.004255473678716167,0.010006583185403097
4,72,1.0006900166942145,0.0037756209710621013,0.008201380461465934
4,73,1.0006992425934482,0.0032916168606462936,0.006528208575877194
4,74,1.000707171957944,0.0028180668812436125,0.005020755794384749
4,75,1.0007137190208284,0.0023682974264561474,0.003693340311848128
4,76,1.000718874743532,0.0019545006833642463,0.002561319745718362
4,77,1.00072251649104,0.001585466798991885,0.0016192823497479564
4,78,1.0007249311320832,0.0012618967344847608,0.0008616429349000449
4,79,1.0007266954075924,0.0009767662746815193,0.00026290560963993556
4,80,1.0007281882036747,0.0007270932966356964,-0.0001909404697500431
4,81,1.0007289515723503,0.0005256487491881782,-0.0005206118260969913
4,82,1.0007284605130276,0.000399836269661892,-0.0007400056685687083
4,83,1.000726864055746,0.0003767872216202866,-0.0008921260008638986
4,84,1.0007249050214115,0.0004681075561918042,-0.0010295267879858656
4,85,1.0007234004362568,0.0006660553497295526,-0.0012238060565303993
4,86,1.000722662074332,0.000938679319721737,-0.0015216209592949662
4,87,1.0007216296479726,0.0012311778800828783,-0.0019468388820640915
4,88,1.0007209420327525,0.0014729427706192436,-0.002471964229885045
4,89,1.0007188032577512,0.0015816029332826832,-0.0030222849964305545
4,90,1.0007183841510292,0.0014869672252820333,-0.0035084590342110288
4,91,1.0007176701539118,0.001096134968119473,-0.0037779821187268734
4,92,1.000709524061408,0.0004566404632021344,-0.003811329577328096
4,93,1.0007484576990502,-0.0003941823176790623,-0.0037167629060833314
4,94,1.000724407849382,-0.0018762348922196006,-0.0029111184147224346
4,95,1.0006859082849229,-0.003149037821186336,-0.0024481272892755593
4,96,1.0010099952187843,-0.0044507762061645395,-0.0020832417820017555
4,97,1.0006095155990213,-0.009787879331639085,0.002520235005424299
4,98,1.0000820771325003,-0.014315536876164858,0.003030946273040365
4,99,1.0009183525841643,-0.010668797642524097,-0.00208026665287294
4,100,1.001306129527821,-0.0015297260361580845,-0.0024751415172689214
4,101,0.9998072233710861,0.05208402732975679,-0.0005514798001819487
5,1,1.0009723995164372,7.451340152152356e-5,-7.875335160613715e-6
5,2,1.000974449847977,0.00020343726359762308,-5.424878873716214e-5
5,3,1.0009741622584667,0.00029867111912797726,-0.00014216337453518005
5,4,1.0009738525780778,0.0003785250537504815,-0.00026448354421767286
5,5,1.000973411662149,0.00045555046855254495,-0.0004155889275837375
5,6,1.000972974402863,0.0005382135006947097,-0.0005910949448817034
5,7,1.0009726325979318,0.000629668072241038,-0.0007883484716423433
5,8,1.0009722404316064,0.0007270022980996695,-0.001006460468186633
5,9,1.0009717414389538,0.0008240814965160161,-0.00124160291596345
5,10,1.0009711616341281,0.000912241077677394,-0.0014857030728515693
5,11,1.000970512519995,0.0009798889669495154,-0.0017262355103935696
5,12,1.0009698247944974,0.0010133221884080104,-0.0019469991421306255
5,13,1.0009691617217948,0.0009982964772430104,-0.002128493832376018
5,14,1.0009686229632475,0.0009217951671677535,-0.002250070954475708
5,15,1.000968346468353,0.0007736288219930207,-0.0022914753928823276
5,16,1.0009685025850137,0.0005474197154463916,-0.002235133694947889
5,17,1.0009692814177125,0.00024067126011702788,-0.0020666814475728355
5,18,1.000970884794172,-0.00014606964947228002,-0.0017752217647491728
5,19,1.0009735261406973,-0.0006105608870944703,-0.0013515535479497467
5,20,1.000977445542128,-0.0011500393322539874,-0.0007867382619731943
5,21,1.0009829237047085,-0.0017615553329353914,-7.01059929335581e-5
5,22,1.000990273948216,-0.002441125860279398,0.000810622527801747
5,23,1.0009997851412704,-0.0031819178727003797,0.0018683862222081688
5,24,1.0010116112050917,-0.003972152866369263,0.0031133798349136676
5,25,1.0010256329937723,-0.004793627912333156,0.004549758594423659
5,26,1.0010413252512045,-0.005621543206647478,0.006171706882044683
5,27,1.0010576843824572,-0.006425948531196698,0.007961784351498215
5,28,1.0010732424078583,-0.0071746487821219285,0.009890407794718793
5,29,1.0010862135759908,-0.007836991923647462,0.011918585552040374
5,30,1.001094717139056,-0.008387614423835735,0.014001358749391454
5,31,1.001097059660969,-0.00880925120168427,0.016093012435988294
5,32,1.0010919490325063,-0.009094019148464631,0.018150784776378315
5,33,1.001078661184038,-0.009243125958153598,0.020138575239122
5,34,1.0010570556827503,-0.009265330308025038,0.022027960442385655
5,35,1.0010275591770446,-0.00917473853041424,0.023799148048771493
5,36,1.0009910231456318,-0.008988457413452635,0.02543959581881137
5,37,1.0009486332133786,-0.008724530299788398,0.026943493108803663