TITLE="CMs_NON_Orthogonal Re = 10000.0"
VARIABLES = X,Y,Rho,U,V
ZONE
I = 101	J = 101
F=POINT
1,1,1.0007946925831963,1.4872985033284452e-6,-2.00788682625749e-6
1,2,1.0007954221743522,4.097375752965862e-6,-1.2905822262434256e-5
1,3,1.0007953951500386,4.579293885547075e-6,-2.7335584952400094e-5
1,4,1.0007956441367252,5.630337601531795e-6,-4.4902689580052875e-5
1,5,1.0007958712660505,6.810054969201694e-6,-6.686715038125531e-5
1,6,1.0007960724657916,8.001972314777254e-6,-9.422498272441839e-5
1,7,1.0007962696858679,9.091745517824086e-6,-0.00012785600520614859
1,8,1.0007964765324426,9.924263784268368e-6,-0.00016895194410097204
1,9,1.0007966895460265,1.0260861066843236e-5,-0.0002186898278345361
1,10,1.0007968954183102,9.748626991855774e-6,-0.00027849118385706706
1,11,1.00079706802612,7.903643874980553e-6,-0.00034952878470384427
1,12,1.0007971717971842,4.090105907629642e-6,-0.00043281091232050744
1,13,1.0007971648898617,-2.4931331868248684e-6,-0.0005285286402276952
1,14,1.0007970127030448,-1.2799167576875613e-5,-0.0006359714877707455
1,15,1.0007967124199193,-2.7886496567100197e-5,-0.0007528431131467119
1,16,1.0007963278958971,-4.881473980624493e-5,-0.0008752662781393605
1,17,1.0007960209686593,-7.651318579667124e-5,-0.000997449392368598
1,18,1.0007960655926054,-0.00011163189819680098,-0.001112151020207848
1,19,1.0007968269873224,-0.00015444479682723492,-0.0012109230907922522
1,20,1.0007987064402093,-0.0002048118519858174,-0.001284942523277073
1,21,1.0008020617392939,-0.00026223046845589025,-0.001325414105042624
1,22,1.0008071310807942,-0.00032591936475149293,-0.0013241761283770144
1,23,1.0008139786101127,-0.00039491149067151857,-0.0012737719447101622
1,24,1.0008224722216101,-0.0004680954999839312,-0.001167698399840276
1,25,1.000832280685177,-0.0005442186908642334,-0.0010004074120648907
1,26,1.0008428764088972,-0.0006218595547991884,-0.0007676927593382873
1,27,1.000853534785272,-0.000699424358248085,-0.0004670120957001136
1,28,1.000863346125516,-0.0007751803326000942,-9.808620569416425e-5
1,29,1.0008712556370833,-0.0008473367824521622,0.00033674170269996266
1,30,1.0008761360125387,-0.000914150081681952,0.0008321391243050995
1,31,1.0008768818485956,-0.0009740526777049133,0.0013798284534001734
1,32,1.0008725176676667,-0.001025785456044789,0.0019687895644231405
1,33,1.0008623052351189,-0.0010685079133403452,0.002585924272627957
1,34,1.0008458322733866,-0.0011018441729479128,0.0032168180302879455
1,35,1.0008230639556368,-0.001125865493612907,0.003846720806200238
1,36,1.0007943487793935,-0.0011410190191707423,0.004461360667906854
1,37,1.0007603797301865,-0.0011480319529252776,0.005047727196280412
1,38,1.0007221214017126,-0.00114780540414165,0.005594534547623986
1,39,1.0006807180007113,-0.0011413194627441932,0.006092570018304486
1,40,1.0006373985528063,-0.0011295530116901375,0.006534733117924401
1,41,1.0005933914376546,-0.0011134277639223593,0.006916013538671825
1,42,1.0005498566138356,-0.0010937704495310346,0.007233257490660511
1,43,1.0005078373533245,-0.001071295675641771,0.007484963065144624
1,44,1.0004682320173475,-0.0010466000648953506,0.0076709592945203905
1,45,1.000431780847585,-0.0010201688625821879,0.007792175847125543
1,46,1.0003990664620284,-0.000992386147325179,0.007850356513858682
1,47,1.0003705203444015,-0.0009635510200326993,0.007847883566716592
1,48,1.00034643673956,-0.0009338923495073908,0.007787577382778793
1,49,1.000326984696001,-0.0009035862231106205,0.007672594729006398
1,50,1.0003122248454086,-0.0008727692607675028,0.007506323652252937
1,51,1.0003021186847478,-0.0008415540606730942,0.007292340647260658
1,52,1.0002965439372309,-0.0008100384270107857,0.007034393862447586
1,53,1.000295297833126,-0.0007783185342712399,0.006736386125124017
1,54,1.0002981113841545,-0.0007464920176874368,0.006402440115173888
1,55,1.0003046464750036,-0.0007146704834371724,0.006036858503794659
1,56,1.0003145122843506,-0.0006829726028550868,0.005644276557259106
1,57,1.0003272574285864,-0.0006515402365086602,0.005229524765239315
1,58,1.0003423934312383,-0.000620513358161366,0.004797901513900917
1,59,1.0003593833062066,-0.0005900601823394703,0.004354815314592304
1,60,1.0003776774510682,-0.0005603173078509127,0.003906270944013246
1,61,1.0003966992286493,-0.0005314578455934667,0.003458078782136599
1,62,1.000415896996592,-0.0005035657633522885,0.0030167821826415434
1,63,1.000434724331513,-0.0004767901496907411,0.0025880575569732
1,64,1.0004527094224553,-0.0004510959427619036,0.0021785759399861396
1,65,1.0004694251259587,-0.0004265908832506434,0.0017929259510610872
1,66,1.0004845649390959,-0.0004030793290223725,0.001437353251566028
1,67,1.000497896678303,-0.00038061794105461485,0.0011141608537993026
1,68,1.0005093492150245,-0.0003588616230285623,0.0008285932106142815
1,69,1.0005189348272374,-0.0003378599198540252,0.0005796710229102724
1,70,1.0005267795226844,-0.00031727186641920097,0.0003713523992652844
1,71,1.0005330765039187,-0.0002970515174632959,0.00019919620369863262
1,72,1.0005382000305434,-0.00027692760604817047,6.557544503733773e-5
1,73,1.0005424806468606,-0.0002571577352515389,-3.6685617120631816e-5
1,74,1.0005460983804786,-0.00023779338413578807,-0.00010542893090753043
1,75,1.000549243429918,-0.00021883170000043742,-0.00014884959253553057
1,76,1.0005523288176328,-0.00020011776736750673,-0.0001653408759212581
1,77,1.000555599145699,-0.0001819624538047657,-0.00016427108760775312
1,78,1.0005589113760798,-0.00016459466914621373,-0.00014312862777784448
1,79,1.0005619783027542,-0.00014806027193790832,-0.00011054443843411706
1,80,1.0005647726459894,-0.00013189729090926078,-6.384550818472655e-5
1,81,1.0005673993929252,-0.00011581373614059027,-1.3948079974017073e-5
1,82,1.0005699517247626,-9.947779758161909e-5,4.0153918679393625e-5
1,83,1.0005723457860436,-8.286768038315988e-5,8.577785355969943e-5
1,84,1.0005744684666675,-6.578058252124704e-5,0.0001240870200118951
1,85,1.000576195936721,-4.858370006202323e-5,0.0001420617543046858
1,86,1.0005773023662017,-3.1151490786127945e-5,0.00014231545595197296
1,87,1.0005779147142067,-1.4799314853589801e-5,0.00011261431824168305
1,88,1.0005776155033441,-1.400321898024422e-7,6.042872063403086e-5
1,89,1.000576686446591,1.1203808305965009e-5,-2.1481585968950662e-5
1,90,1.000574786557373,1.4862981225873334e-5,-0.00011255548244860197
1,91,1.000571795880211,1.4391459794013556e-5,-0.00020660917374205697
1,92,1.000577888652899,-1.4081393887889086e-5,-0.0002524538771078765
1,93,1.000578023734485,-7.492712850094137e-5,-0.00016997116729174745
1,94,1.000577443166094,-0.00016347340938898528,0.00013879896280559676
1,95,1.0005760009328135,-0.0002662905513748773,0.0007442975306244562
1,96,1.0006380669887025,-0.0002552290074765957,0.001516324615949149
1,97,1.000830291166646,-0.0010384647402623746,0.0032595729038841052
1,98,1.0001372726834168,-0.0011042536025932283,0.0065380847642339136
1,99,1.0006106109304655,0.0005597630599069752,0.007688681990564816
1,100,1.0017858148967036,-0.007669889708464096,0.016433124110361158
1,101,0.9963611671657507,0.026531818043035456,0.014003323440651024
2,1,1.0007937912208926,1.289343113911622e-5,-4.047926073896617e-6
2,2,1.0007944908049213,2.8315129765379752e-5,-2.5824215169646995e-5
2,3,1.0007940910307342,3.555472510507808e-5,-6.198256597356844e-5
2,4,1.000793961676194,4.47609331069872e-5,-0.0001093069560119063
2,5,1.000793685872491,5.660622824135199e-5,-0.000169644009546509
2,6,1.0007932563105926,7.068385126885104e-5,-0.00024562709546484946
2,7,1.0007927112677544,8.745829742482487e-5,-0.0003395715882924236
2,8,1.000792023238873,0.00010751118879996451,-0.0004544723457071781
2,9,1.0007911601445476,0.00013134694910804136,-0.0005934489514262056
2,10,1.0007900882387397,0.00015924387582534976,-0.000759743248330113
2,11,1.0007887862665075,0.00019105166352454517,-0.0009558326504074334
2,12,1.0007872560360467,0.00022598838250318596,-0.0011829614704918711
2,13,1.0007855392118685,0.00026246073795934663,-0.0014398261569079922
2,14,1.0007837390114807,0.00029801667494949876,-0.0017218215003734195
2,15,1.0007820494916833,0.000329512946586245,-0.002019897652805506
2,16,1.0007807749378768,0.00035352059670230575,-0.002320560164608766
2,17,1.0007803296413749,0.0003669025072879334,-0.002606105842578692
2,18,1.0007811995138571,0.00036738531014190285,-0.002856208129657809
2,19,1.0007838737738206,0.0003539087234051896,-0.003049495871128351
2,20,1.0007887583606112,0.0003265990076024522,-0.0031655967056423975
2,21,1.0007961063110404,0.00028639890993197394,-0.0031861867291853693
2,22,1.0008059796646576,0.0002345623010642763,-0.0030956960006236506
2,23,1.000818250680975,0.00017230126487717534,-0.002880995918354144
2,24,1.0008326150468712,0.00010077175576742469,-0.0025312944374257375
2,25,1.0008485977587476,2.1385723162031034e-5,-0.0020379692369819936
2,26,1.0008655353818032,-6.375660675766572e-5,-0.0013952385010547175
2,27,1.000882559721856,-0.00015155830033674128,-0.0006009287165741971
2,28,1.0008986011143515,-0.00023788112655928056,0.00034234634029274894
2,29,1.000912430308938,-0.000317764483005766,0.0014264640430569806
2,30,1.0009227297574068,-0.0003858611104510715,0.002637249335462084
2,31,1.0009282018480876,-0.0004370243959080478,0.00395479339915887
2,32,1.000927694780879,-0.0004669397096507383,0.005354215057026465
2,33,1.000920335027283,-0.00047265011971916717,0.00680721390465995
2,34,1.0009056271804972,-0.00045285703652300357,0.008283743115682975
2,35,1.0008835134633574,-0.00040795128469017127,0.009753924648173592
2,36,1.0008543696486036,-0.000339807977885919,0.011189557217803514
2,37,1.0008189577336577,-0.00025142318303557457,0.01256542588886557
2,38,1.0007783330768005,-0.00014648650525013975,0.013859985429009337
2,39,1.0007337438186272,-2.8969754813275146e-5,0.015055778299359725
2,40,1.0006865204675588,9.721362098701789e-5,0.01613933600586325
2,41,1.0006379903177136,0.00022845536833885285,0.017100965699708287
2,42,1.0005894004717335,0.0003616030542723157,0.01793423967290548
2,43,1.000541876411296,0.0004940291518057156,0.018635525855532447
2,44,1.0004963873437651,0.0006236350766803602,0.01920340501731777
2,45,1.0004537436280683,0.0007488129687311743,0.019638198852223433
2,46,1.0004145902805368,0.000868378177474339,0.019941509349228604
2,47,1.0003794264060906,0.0009814917603838287,0.0201158478262315
2,48,1.0003486095402563,0.0010875750877735132,0.020164375370586348
2,49,1.0003223831517187,0.0011862330885784617,0.020090635596837682
2,50,1.000300879792163,0.00127717657880039,0.01989852181371516
2,51,1.0002841495995503,0.0013601633651162779,0.01959206424062727
2,52,1.0002721559045678,0.0014349362414431614,0.01917564400349342
2,53,1.0002648034077144,0.0015011884460965073,0.018653756273038648
2,54,1.0002619232377485,0.0015585187117296605,0.01803151138782485
2,55,1.0002633033075419,0.0016064264447942405,0.017314263831559405
2,56,1.000268660989271,0.0016442853646858636,0.016508471038856644
2,57,1.0002776809052898,0.0016713771623424129,0.01562102619112162
2,58,1.000289973265059,0.0016868868814011737,0.014660577456447126
2,59,1.0003051269105872,0.0016899859031182173,0.013636320459804152
2,60,1.0003226506556284,0.0016798510143633666,0.012559914749354119
2,61,1.0003420518999837,0.0016558013804853782,0.01144338231677272
2,62,1.0003627573054323,0.0016173315666373714,0.01030180679649019
2,63,1.000384228705687,0.0015642909771441467,0.00914987180754008
2,64,1.0004058576672281,0.0014969077254524117,0.008005618827177596
2,65,1.00042712826174,0.0014159505450622757,0.00688509123971964
2,66,1.0004474787168351,0.0013227002811504267,0.005807596715675926
2,67,1.0004665107382493,0.0012190693773650191,0.004787963428645083
2,68,1.0004838080796845,0.0011074574691915325,0.003843928122648523
2,69,1.0004991907661804,0.0009906282833110046,0.002985762544513597
2,70,1.0005124806712904,0.0008715402837759537,0.002226497108528655
2,71,1.000523735645223,0.000753453254673817,0.0015690873196404181
2,72,1.000533010400754,0.0006393996508367428,0.0010195883763896435
2,73,1.0005406969782817,0.0005313209749713756,0.0005723304023522172
2,74,1.000547057195639,0.00043024234685602557,0.00022708044801859705
2,75,1.0005523352297199,0.00033779021812012133,-2.7237778651513225e-5
2,76,1.0005566696596466,0.00025592934862617964,-0.0001951899246230871
2,77,1.0005605826766355,0.00018507446528922888,-0.00029410053964148996
2,78,1.0005642680500246,0.00012406403057390415,-0.000332175835893212
2,79,1.0005676096333531,7.270156812078729e-5,-0.00032724105521257483
2,80,1.0005701413930888,3.308558538934922e-5,-0.0002865087104421082
2,81,1.0005718229733171,8.091434538822908e-6,-0.00023150072465478904
2,82,1.0005726699847541,-1.788766551199362e-7,-0.00017612852692506885
2,83,1.0005729277672775,9.153891648995923e-6,-0.00014975096763910026
2,84,1.0005723670377435,3.5677482241941276e-5,-0.00016998178267567875
2,85,1.0005708864807896,7.853435888603781e-5,-0.00026690667156700835
2,86,1.0005680877482153,0.0001349083564403657,-0.00045341554178584284
2,87,1.0005635725637354,0.00020087522961297267,-0.0007512023508859549
2,88,1.000557790415124,0.0002680241810827562,-0.0011586220951665081
2,89,1.0005501294730876,0.00032339855311916453,-0.001673212604232639
2,90,1.0005426008449656,0.0003516386693560452,-0.002264630310211348
2,91,1.0005377818467047,0.00031140416569243817,-0.0028700351126912955
2,92,1.000537483929525,0.00015868722869618687,-0.0033822722295355364
2,93,1.0005598927628303,-0.00021483914900285311,-0.003645677512619417
2,94,1.0005703123926108,-0.0007370165562165514,-0.00343300369375954
2,95,1.0006343134648834,-0.0011719920818235312,-0.0028444312274709606
2,96,1.0007076330351141,-0.0024243405564334333,-0.0010302318539709746
2,97,1.0006161210043636,-0.004000238591435621,0.001590135763095841
2,98,1.0013781519185903,-0.004797643253747514,0.0038268076072136867
2,99,1.0002757766754473,-0.010898722937779852,0.01621472811732028
2,100,0.9994698227687255,-0.012170323983009112,0.021837048060848727
2,101,1.0036248913336712,0.05155191220678158,0.00563493302929394
3,1,1.000793802559704,2.3673990510847095e-5,-4.054830853848215e-6
3,2,1.0007949633333195,6.11500394807397e-5,-2.9304780998406445e-5
3,3,1.000794651983938,8.572346568497357e-5,-7.871846743639713e-5
3,4,1.0007943190576643,0.00011064488888584649,-0.0001503528122676885
3,5,1.0007939708767077,0.0001396346240978069,-0.00024253392228927448
3,6,1.000793516225309,0.0001730415770210055,-0.0003571152186706199
3,7,1.0007929292487314,0.00021123154003452414,-0.0004970236041913371
3,8,1.000792198902295,0.0002547396621796081,-0.0006654439743900668
3,9,1.000791279665052,0.0003034390848203718,-0.000865279941158867
3,10,1.000790143878615,0.0003561525099309325,-0.0010987614292467252
3,11,1.0007887899106247,0.0004102579087577167,-0.0013660800015453524
3,12,1.0007872504580433,0.0004612448144255013,-0.0016646070312768887
3,13,1.0007856062193332,0.0005024738877307557,-0.001987205741678068
3,14,1.0007840023861505,0.0005254139877531787,-0.0023215372834937244
3,15,1.00078266458256,0.0005205652102910348,-0.0026493717096072824
3,16,1.0007819016620971,0.0004789851807679598,-0.0029477822428776983
3,17,1.0007820834619865,0.0003940157396514345,-0.0031908851460935735
3,18,1.0007835915724197,0.00026258830724042447,-0.0033530126540876064
3,19,1.0007867523878318,8.554710724550923e-5,-0.0034111403739303537
3,20,1.0007917789223626,-0.00013315941967788532,-0.0033469154967214654
3,21,1.0007987429765859,-0.0003880064623814101,-0.00314662849066235
3,22,1.0008075868853532,-0.0006733514450068905,-0.0028005334136194057
3,23,1.0008181525430435,-0.0009841150938285695,-0.00230122476409842
3,24,1.000830195795494,-0.0013154585049623144,-0.0016430219436169154
3,25,1.0008433647069221,-0.0016618138293826449,-0.0008218226688056831
3,26,1.00085715468616,-0.00201591245868663,0.00016368180970368991
3,27,1.0008708690514454,-0.002368315113415719,0.0013108178656208028
3,28,1.000883601408133,-0.0027075982120861636,0.0026113423186445695
3,29,1.0008942544239317,-0.003021131613432565,0.004050788342388961
3,30,1.0009016034516283,-0.0032962919239679874,0.005608203808771785
3,31,1.0009044152216704,-0.0035218727654784177,0.00725726591885589
3,32,1.0009015919621225,-0.0036893650278572348,0.00896776981512572
3,33,1.0008923190319066,-0.0037938150975775804,0.01070797081329457
3,34,1.0008761677575724,-0.003834101475102598,0.012446525450896282
3,35,1.0008531505558078,-0.003812651205055781,0.014154517924421968
3,36,1.0008237020267146,-0.003734738247294331,0.015806530393995114
3,37,1.0007886217160264,-0.003607573209814986,0.01738154593125158
3,38,1.0007489696052363,-0.003439371870672624,0.018862903062018235
3,39,1.000705967489234,-0.0032385468843948062,0.02023828208329893
3,40,1.0006608875599943,-0.0030130889266017837,0.021499001889028913
3,41,1.00061497829256,-0.0027701600156387046,0.02263962077779948
3,42,1.0005693900734003,-0.002515871758245865,0.02365705908260236
3,43,1.0005251465379654,-0.002255217733225684,0.024550192672480473
3,44,1.0004831103298637,-0.0019921092939266727,0.025319066469362158
3,45,1.000443990272702,-0.0017294852269013447,0.025964637776557536
3,46,1.0004083320669188,-0.0014694539376449744,0.02648816355644676
3,47,1.0003765437128675,-0.001213457495872795,0.02689111116428402
3,48,1.0003488958285345,-0.0009624291079148597,0.027174715206759487
3,49,1.0003255518877565,-0.0007169516960171249,0.027340017373917048
3,50,1.0003065692686368,-0.0004773944040403816,0.027387572751653128
3,51,1.0002919272768909,-0.0002440488110475034,0.027317571398474544
3,52,1.000281526137895,-1.7237595886504624e-5,0.02712969615963176
3,53,1.0002752103435273,0.00020257053848534335,0.026823284913862662
3,54,1.0002727666779025,0.00041467955774185616,0.02639738213179187
3,55,1.0002739425860043,0.0006180715204403491,0.025850901791826357
3,56,1.00027844615908,0.0008113593231053489,0.025182962473625736
3,57,1.0002859593934057,0.000992722960024464,0.02439298981991714
3,58,1.000296143250678,0.0011599181103142935,0.023481469265782515
3,59,1.000308644348861,0.0013102697170772806,0.02244986295335369
3,60,1.0003231070376992,0.0014407734366774264,0.0213019375430453
3,61,1.0003391697442097,0.0015481816067442898,0.020043242328608962
3,62,1.0003564844429178,0.0016292324804468654,0.01868315037172494
3,63,1.00037469841803,0.0016808501501465345,0.01723344612859391
3,64,1.000393479873707,0.0017005005978638116,0.015711158785660304
3,65,1.0004124838854096,0.001686453774948384,0.014135601322675488
3,66,1.000431389303987,0.0016381835719865624,0.012532009500121769
3,67,1.0004498560374993,0.0015565915510664067,0.010926307139941659
3,68,1.0004675670749374,0.0014442520912201894,0.009349678807315093
3,69,1.0004842019928695,0.0013053029653463356,0.007830574307545288
3,70,1.0004995040707145,0.0011453731502464757,0.0064004856769611105
3,71,1.0005132573457012,0.0009714131835856744,0.005083544043615079
3,72,1.000525292178108,0.0007912286793337494,0.003904378374284554
3,73,1.0005355488254475,0.0006119466921256593,0.0028757498104029977
3,74,1.0005441780749151,0.00043896318337018547,0.002008823511993691
3,75,1.0005513803732191,0.0002774416613178644,0.0013018364257349794
3,76,1.000557167960151,0.00013406010796829194,0.0007536302662764881
3,77,1.0005616641995592,1.4496397000833891e-5,0.0003486380247778005
3,78,1.0005652653123949,-7.990398503059928e-5,7.025773995677809e-5
3,79,1.0005682572680161,-0.00014980919862279344,-0.00010929555396220533
3,80,1.0005703857394794,-0.0001923634360282815,-0.000210358456435912
3,81,1.0005712527326147,-0.00020011708693699247,-0.00026236517973726617
3,82,1.0005708212991227,-0.0001644159631972643,-0.00029378711038993666
3,83,1.0005694028290117,-7.947875558269922e-5,-0.00034950402556632504
3,84,1.0005672738806763,5.515504925990237e-5,-0.000471838661107139
3,85,1.0005643322813174,0.00023434511366312853,-0.0007079299627023491
3,86,1.000560186602057,0.00044777411576548613,-0.0010878337952642011
3,87,1.0005546254114006,0.0006766751398303374,-0.0016316479214383698
3,88,1.0005467158996169,0.0008980371968833434,-0.002329169515613722
3,89,1.0005385480385567,0.0010779578694201219,-0.0031596097777776056
3,90,1.0005298757651069,0.001157676540400246,-0.004042056367679188
3,91,1.0005232705992821,0.0010757154664569775,-0.004890482438681531
3,92,1.0005229474780721,0.0006979965246267676,-0.005529968747936279
3,93,1.0005143149113733,1.0855620900661628e-5,-0.005863534306484996
3,94,1.0005714408832265,-0.0009087365277476587,-0.005977486743375834
3,95,1.0005816939628127,-0.0024807818812593537,-0.004983660447850085
3,96,1.0004582799601078,-0.0038765205540403137,-0.003819978562438252
3,97,1.0009111160496569,-0.005738113746712926,-0.0031951152592985892
3,98,1.0005358955052583,-0.012789703627992666,0.003499563148632494
3,99,0.9993528579307249,-0.01707079304683481,0.0059170107522239215
3,100,1.0004299592087624,-0.0026696300714193592,-0.0006074184104711415
3,101,1.0003560787010606,0.05523972653538308,-0.00191539429310067
4,1,1.0007934476977858,3.881156562795313e-5,-5.382589420315981e-6
4,2,1.0007948202014139,0.00010443203862695758,-3.733617695308996e-5
4,3,1.0007946605326592,0.0001568555419034355,-0.00010045482181072991
4,4,1.0007943485732171,0.00020737667913172197,-0.00019366518699015555
4,5,1.0007939057789659,0.0002604900394037712,-0.00031352977474304234
4,6,1.0007934895129846,0.0003201621957715472,-0.0004580706979805649
4,7,1.0007930113990275,0.00038820993295265934,-0.0006283706850233535
4,8,1.000792414508923,0.0004650801402456247,-0.0008262227386045956
4,9,1.0007916912105457,0.0005501239891229366,-0.001051558417830562
4,10,1.0007908332527518,0.0006408351142257556,-0.0013022925942764681
4,11,1.0007898642483906,0.0007322660058260265,-0.001572759246364845
4,12,1.0007888389223853,0.0008165184030339644,-0.0018531986298442767
4,13,1.0007878420648495,0.0008826805493856877,-0.00212851108862757
4,14,1.0007869962010443,0.0009177668662295221,-0.002378719660582128
4,15,1.0007864668910176,0.0009087814851569304,-0.002579658897227382
4,16,1.0007864618444653,0.0008454422119786059,-0.0027059008559867613
4,17,1.0007872120001544,0.0007225791183702277,-0.0027334937462437144
4,18,1.000788936876056,0.0005411275079456965,-0.002643269887900425
4,19,1.0007918037161683,0.0003071465448461582,-0.00242180506318017
4,20,1.000795906335802,2.9254415486150244e-5,-0.002061232812596552
4,21,1.0008012754292486,-0.00028426425105325485,-0.0015566661306170538
4,22,1.000807910992652,-0.0006272332948620397,-0.0009041174182737246
4,23,1.0008157986877486,-0.0009954679442428659,-9.864442625403203e-5
4,24,1.000824881072258,-0.001385069509345967,0.0008649975697524827
4,25,1.0008349898601026,-0.0017902124378950377,0.0019909506658761953
4,26,1.0008457647911253,-0.0022014972088038117,0.00327931926905639
4,27,1.0008565885501315,-0.0026054422191403885,0.00472406576063931
4,28,1.0008665501775083,-0.0029851960331994773,0.006310950234071462
4,29,1.0008744790953807,-0.0033222914614043186,0.00801757210890698
4,30,1.0008790473596394,-0.003599009748054844,0.009814174749456263
4,31,1.0008789457777094,-0.003800763398737547,0.011666462423731518
4,32,1.0008730610929804,-0.0039178978271970375,0.01353824972148161
4,33,1.0008606441822507,-0.003946564930155522,0.015394841449732822
4,34,1.0008413907663263,-0.003888600395335377,0.017204993461823918
4,35,1.0008154759209025,-0.003750622146887511,0.018942849827447723
4,36,1.0007834890679006,-0.003542666217438161,0.02058814187190215
4,37,1.0007463628905682,-0.0032767147150288512,0.022126563798140212
4,38,1.0007052388493436,-0.0029653538466756267,0.023548748728553844
4,39,1.0006613816645678,-0.002620724831972767,0.024849925654566556
4,40,1.000616054713671,-0.0022537956143910197,0.02602851481312451
4,41,1.0005704754573324,-0.0018739506993245966,0.027085749945035646
4,42,1.0005257309444253,-0.0014888245304130058,0.028024365820474833
4,43,1.0004827825629459,-0.0011043283723252773,0.028848465306727758
4,44,1.0004424161048173,-0.0007247886817506296,0.02956243066516533
4,45,1.000405280784407,-0.0003531613566749585,0.030171063374284948
4,46,1.0003718568896862,8.734661765361107e-6,0.03067868735508898
4,47,1.0003425110858557,0.00035997326859814213,0.031089495663755375
4,48,1.0003174677277835,0.0007002993354134551,0.031406770653075365
4,49,1.0002968681346547,0.0010299179434652204,0.03163336160159864
4,50,1.000280738380446,0.0013493152956035146,0.031770956732352744
4,51,1.0002690464058226,0.001659088050143124,0.031820635829420164
4,52,1.0002616645664109,0.0019598004911083175,0.031782156359531466
4,53,1.0002584226609137,0.002251837654832423,0.03165455201157642
4,54,1.0002590670291054,0.0025352820639077157,0.03143543127700744
4,55,1.0002633100931062,0.0028097727769933853,0.031121621919268226
4,56,1.0002707901202337,0.003074392496497094,0.030708530392952342
4,57,1.000281119386897,0.003327528506528235,0.03019086348303647
4,58,1.0002938503488799,0.0035667832949453334,0.029562166953003264
4,59,1.00030852503727,0.003788862612191792,0.028815679614456288
4,60,1.0003246535618757,0.003989559420435841,0.027944250506576705
4,61,1.0003417653126874,0.004163735752897611,0.02694136368599353
4,62,1.0003594029829619,0.0043054716286474275,0.025801679893721445
4,63,1.0003771695813557,0.004408242897112931,0.02452214248768019
4,64,1.0003947323510143,0.004465333865536836,0.023103323347637247
4,65,1.000411850698579,0.004470289832900526,0.021550211931089393
4,66,1.0004283784875514,0.004417621056122,0.01987427731224722
4,67,1.0004442485284926,0.004303463189855307,0.018093102390957152
4,68,1.0004594634658663,0.004126381020185947,0.016232736917644076
4,69,1.0004740374732506,0.0038879255347186287,0.014325023301178113
4,70,1.0004880015255444,0.0035931063947763193,0.01240956311584548
4,71,1.0005013156832407,0.0032504397612010756,0.010528031904356307
4,72,1.0005138998727274,0.002871772074158804,0.008725913627106252
4,73,1.000525558866015,0.002471109462009412,0.007044184656874245
4,74,1.0005361674808002,0.002062753637818604,0.0055205984992393615
4,75,1.00054567472301,0.001660331698558604,0.004180846240034752
4,76,1.0005540446629573,0.0012786536875794314,0.003044291408184977
4,77,1.0005610051068587,0.0009340213533139023,0.0021171397037995634
4,78,1.0005665196797149,0.0006393243457321921,0.0013945029158761925
4,79,1.0005708704135658,0.00039999629705778723,0.0008537115059857303
4,80,1.0005742692494333,0.00021956732485151284,0.0004667405047366079
4,81,1.00057635229263,0.00010811329380015598,0.0002013784971486726
4,82,1.0005768059803373,8.368988932613932e-5,2.267517412318231e-5
4,83,1.0005759216909345,0.00016326925623119854,-0.00011941515921509938
4,84,1.0005743318221691,0.0003509443800771046,-0.0002851015299292602
4,85,1.0005725505040655,0.0006341208386728254,-0.0005374604520771454
4,86,1.0005705003995946,0.0009810460756261993,-0.0009191787681034279
4,87,1.0005671058930596,0.0013469539594940024,-0.0014432469715049173
4,88,1.000563150878163,0.0016776714433145478,-0.0020855938232193063
4,89,1.0005572069056983,0.0018996125762745157,-0.0027718343080650964
4,90,1.0005527015027957,0.0019277741670307702,-0.003417153233451983
4,91,1.0005469039420214,0.0016261083072872525,-0.0038490541160318033
4,92,1.0005343624767935,0.000992273602252418,-0.004027003501740692
4,93,1.0005682930212192,3.825753534665339e-5,-0.004023621579517558
4,94,1.0005400626417131,-0.0016593215419533525,-0.0032406451351149703
4,95,1.0005052017773335,-0.003221849861315728,-0.0027528933342109456
4,96,1.0008250440761308,-0.0048311454449521535,-0.0023116775020789633
4,97,1.0004237220109415,-0.010333391593905726,0.0023404339380726866
4,98,0.9998923085948963,-0.014740773876131274,0.0028791413642751656
4,99,1.000735867110334,-0.010858825023063552,-0.0021222094037371964
4,100,1.0011300911462657,-0.001481477229720214,-0.0024584324244723466
4,101,0.999625348702786,0.052145917852197916,-0.0005498961863933839
5,1,1.000793188580182,5.5746109162399705e-5,-6.442192408173548e-6
5,2,1.0007947775272934,0.0001563154640979226,-4.4963435857816706e-5
5,3,1.0007945797544653,0.00024180388950394957,-0.00012057205293347402
5,4,1.0007943556292038,0.0003220260484850289,-0.0002294256833149678
5,5,1.0007939654774876,0.0004002311857330936,-0.0003667301386023593
5,6,1.000793532306227,0.0004821435011981127,-0.0005281557568502236
5,7,1.0007931410156583,0.000571744920410462,-0.000710464303081466
5,8,1.0007926922078336,0.000668253583718744,-0.000911918221641959
5,9,1.0007921401139073,0.0007676519193546353,-0.0011282800313173946
5,10,1.0007914991933402,0.0008632491519377169,-0.0013517549849003663
5,11,1.0007907823552356,0.0009450454249911711,-0.001569981674509531
5,12,1.0007900147767588,0.0009995035395426854,-0.0017666032377316753
5,13,1.000789232201236,0.0010102491479679297,-0.0019210697124482845
5,14,1.0007884873240347,0.000960159368126071,-0.002010897592606953
5,15,1.0007878661733283,0.0008346784334803254,-0.002013567170079154
5,16,1.000787499961595,0.0006252406291342127,-0.0019102126381526424
5,17,1.0007875581304984,0.0003312511315204532,-0.0016872730051368768
5,18,1.0007882271423745,-4.0516291749901144e-5,-0.0013375656724999643
5,19,1.000789689061342,-0.0004790313254505502,-0.0008577372438099436
5,20,1.000792126430816,-0.0009731381989439477,-0.0002453921983506602
5,21,1.0007957457517278,-0.0015145620174650068,0.0005049046211091764
5,22,1.0008007845438411,-0.0020982563627073895,0.0014024452115665694
5,23,1.0008074646706377,-0.0027201254757312685,0.0024596746388866465
5,24,1.0008158897119324,-0.003373527471502103,0.003687946772706455
5,25,1.0008259277168947,-0.004046321026890023,0.005093570994237985
5,26,1.0008370974638607,-0.004719588564474778,0.006673025100157447
5,27,1.0008485113520813,-0.005368420430796616,0.008411064038103303
5,28,1.0008588868211175,-0.0059645286124919775,0.01027985718923756
5,29,1.0008666865662657,-0.006480009537373565,0.012241941851165443
5,30,1.000870311127762,-0.006891206938942649,0.01425358310995553
5,31,1.000868352569446,-0.007181708825856389,0.01627027208563466
5,32,1.000859766454422,-0.007343843063849909,0.018250277563474006
5,33,1.000844021286125,-0.007378610476410205,0.02015856720486652
5,34,1.0008210913563396,-0.007294349051713613,0.021967598741894526
5,35,1.0007914505430784,-0.00710470403206448,0.02365848812467577
5,36,1.0007559258225436,-0.006826398407022633,0.025219398315574782
5,37,1.0007156333651002,-0.0064772399085771815,0.02664526999245272