TITLE="CMs_NON_Orthogonal Re = 10000.0"
VARIABLES = X,Y,Rho,U,V
ZONE
I = 101	J = 101
F=POINT
1,1,1.000988724937351,1.8682590140478037e-6,-2.74205572527929e-6
1,2,1.0009897850514387,5.425771684243305e-6,-1.768641391815786e-5
1,3,1.0009897169052802,5.781748574312478e-6,-3.7172229261547446e-5
1,4,1.0009899647953473,6.628384665062895e-6,-5.974566211491863e-5
1,5,1.0009902246879094,7.506154644937705e-6,-8.685991867132634e-5
1,6,1.0009904854906777,8.141778668841595e-6,-0.0001195657169555598
1,7,1.0009907709925352,8.269364596630917e-6,-0.00015871686946834833
1,8,1.0009910938411486,7.521462913105537e-6,-0.00020542982041228845
1,9,1.0009914460673381,5.341337385704246e-6,-0.0002607857188556796
1,10,1.0009918110064833,9.495302040373716e-7,-0.0003259736850457436
1,11,1.0009921625885454,-6.665240027185366e-6,-0.00040184729532358627
1,12,1.0009924754977975,-1.8747833023972697e-5,-0.0004889739729382315
1,13,1.000992735186414,-3.675974515095879e-5,-0.0005871529821759608
1,14,1.0009929529816415,-6.233495301353997e-5,-0.0006954200002654585
1,15,1.0009931825060825,-9.721331339813307e-5,-0.0008116089581993742
1,16,1.000993536820916,-0.0001431333861276769,-0.0009324102621425656
1,17,1.0009941986358615,-0.0002017137356091617,-0.0010531056424469074
1,18,1.000995420414473,-0.0002743191620985501,-0.0011677924366602695
1,19,1.0009975081114182,-0.0003619510663167254,-0.0012693575529620902
1,20,1.0010007914323606,-0.00046514987104906403,-0.0013498519110572312
1,21,1.0010055806685365,-0.0005839345559789319,-0.001400630072723903
1,22,1.0010121176696996,-0.0007177563894773862,-0.0014127879363314518
1,23,1.0010205230457316,-0.0008654846125776571,-0.0013774093942129043
1,24,1.0010307471317137,-0.001025406394632739,-0.0012860763308934356
1,25,1.0010425265156357,-0.0011952617349906438,-0.0011312723944291848
1,26,1.0010553533119673,-0.0013723052479111529,-0.00090702701254633
1,27,1.0010684614268963,-0.0015534129010375264,-0.0006094573644223923
1,28,1.0010808418193125,-0.0017352206895541282,-0.00023740931927593805
1,29,1.0010912939656242,-0.001914295670033833,0.0002071412094282447
1,30,1.0010985159497328,-0.0020873166362952765,0.000718793238015229
1,31,1.0011012218896858,-0.002251269150214627,0.0012887910636838517
1,32,1.00109827288258,-0.002403644381496473,0.0019053300790418338
1,33,1.001088801643791,-0.002542608284467212,0.0025542941980875146
1,34,1.0010723119667118,-0.002667068203793097,0.0032201811557955543
1,35,1.0010487344003904,-0.002776626867355782,0.003887159559663015
1,36,1.0010184309775807,-0.0028714538299728703,0.004539974261875089
1,37,1.0009821502238383,-0.0029521296612311145,0.005164715599188793
1,38,1.0009409461230336,-0.003019489928249174,0.005749310297919702
1,39,1.0008960762520989,-0.0030744939568107506,0.006283821906236591
1,40,1.0008488984479587,-0.0031181190874401644,0.006760509549952452
1,41,1.0008007766714997,-0.0031512881075589786,0.007173757364235533
1,42,1.0007530073926922,-0.0031748205894899686,0.0075198710593000085
1,43,1.0007067650897983,-0.0031894100500958603,0.007796830418665717
1,44,1.0006630710619342,-0.003195615346499209,0.008004012575863946
1,45,1.0006227756370432,-0.003193867759211697,0.008141921969044915
1,46,1.0005865578307893,-0.0031844831643452914,0.008211961871760003
1,47,1.0005549278176962,-0.00316768236295674,0.008216216992043392
1,48,1.0005282416717909,-0.003143610577677618,0.008157325159749406
1,49,1.0005067091486302,-0.0031123613301707346,0.008038325274076816
1,50,1.0004904131433552,-0.0030739961267271416,0.007862640185556994
1,51,1.0004793139328865,-0.0030285679905550744,0.007633965542834598
1,52,1.0004732698330807,-0.002976137630463155,0.00735636140062119
1,53,1.0004720342539097,-0.002916796318926343,0.007034133164207778
1,54,1.0004752793027016,-0.002850674654330673,0.0066720350860677785
1,55,1.0004825849811065,-0.0027779673236892205,0.006275066283609541
1,56,1.000493470906398,-0.0026989265547291276,0.0058488137366927645
1,57,1.0005073779529023,-0.0026138965009296737,0.005399037128624081
1,58,1.000523715045213,-0.002523274425572827,0.00493223826050594
1,59,1.0005418327003888,-0.002427575092082197,0.004454815405435514
1,60,1.0005610916026288,-0.0023273249417123006,0.003974081862588111
1,61,1.0005808250261206,-0.0022232044083492423,0.003496591016695276
1,62,1.000600432673214,-0.0021158080702951207,0.0030301172152823143
1,63,1.0006193250997901,-0.0020059605965908806,0.00258040830500169
1,64,1.0006370408612604,-0.0018942258534716619,0.0021551876724666946
1,65,1.000653164028964,-0.0017815490694169872,0.0017579905503645038
1,66,1.0006674525540267,-0.0016683724394739214,0.0013960600010007372
1,67,1.0006797238096479,-0.001555716297316038,0.0010691976276839168
1,68,1.0006899871284662,-0.0014438781322562981,0.0007839915815246092
1,69,1.0006982935722415,-0.0013338897764589624,0.0005355372767037651
1,70,1.0007048366828994,-0.001225996537392207,0.00032990201089695464
1,71,1.000709823202377,-0.00112106480930479,0.0001576754511697416
1,72,1.0007135985650402,-0.0010193663367792198,2.4492492979736618e-5
1,73,1.0007164078931619,-0.0009217774278531798,-8.219029390777495e-5
1,74,1.000718436112346,-0.0008285777080438896,-0.00015619331728762716
1,75,1.0007199115867025,-0.0007401384710680873,-0.0002117185475258507
1,76,1.0007212600995503,-0.000656657642869946,-0.00024247331441319735
1,77,1.0007226336489006,-0.0005790067830441006,-0.0002629612762716579
1,78,1.0007238034009833,-0.0005077351867406683,-0.0002638179073679353
1,79,1.000724511278841,-0.00044299715245331195,-0.00025747311976806724
1,80,1.0007249513322798,-0.00038398477772520116,-0.00023357966440719894
1,81,1.0007255100007004,-0.0003299163243759178,-0.00020748729553962333
1,82,1.0007265057759245,-0.00027974476973816954,-0.00017109934262317703
1,83,1.0007279414264143,-0.00023294306784051746,-0.00014255862379171336
1,84,1.0007297217355358,-0.00018883596226162692,-0.00011376020010575794
1,85,1.0007317286320303,-0.00014780947777224347,-0.00010392321335514407
1,86,1.0007337150410138,-0.00010995639761187267,-0.00010340366568959608
1,87,1.000735722409535,-7.747401476323395e-5,-0.0001309656538256743
1,88,1.0007372278662863,-5.179732037636815e-5,-0.0001698326517414025
1,89,1.000738293199089,-3.4712013332818454e-5,-0.00023127382369020512
1,90,1.000738793286804,-2.9974005086633044e-5,-0.00028300904998885857
1,91,1.0007386346681895,-3.250272953580699e-5,-0.00032279869647054027
1,92,1.0007477319419373,-6.262106502383816e-5,-0.00029423406859514913
1,93,1.0007514873933523,-0.00012273268869712506,-0.00013151196322410894
1,94,1.000753090848267,-0.0002042025211839976,0.000252322121426901
1,95,1.0007531003553523,-0.0002939158143771972,0.0009057029580765414
1,96,1.0008139787638046,-0.0002668899704802059,0.0016827175044396654
1,97,1.0010018087539456,-0.0010275438082396212,0.003378615580165298
1,98,1.0003138119997883,-0.0010917697829782972,0.006578874659957587
1,99,1.0007793253762896,0.0005629028534503984,0.007659091004010437
1,100,1.0019561198469646,-0.007688771761051139,0.016414326986763147
1,101,0.9965389612409994,0.026525135002460117,0.013995974081470491
2,1,1.0009874640931424,1.7991399341103596e-5,-5.672229703839422e-6
2,2,1.0009884974366645,3.905786708408588e-5,-3.588720253589028e-5
2,3,1.000987921836287,4.714899461187009e-5,-8.46085405805233e-5
2,4,1.0009877344397702,5.642692952922913e-5,-0.00014474595736218063
2,5,1.0009874806077208,6.899296791210105e-5,-0.00021780938041746707
2,6,1.0009871002884827,8.41331035399534e-5,-0.00030695379781125884
2,7,1.0009866369888023,0.00010226527921792695,-0.0004145878764650636
2,8,1.0009860690250554,0.00012409517170638529,-0.0005435467213187587
2,9,1.000985371367806,0.00015022218335664173,-0.0006966257302614556
2,10,1.0009845189391018,0.00018102873546289237,-0.0008763804415981997
2,11,1.0009835017711313,0.00021658909779584802,-0.0010842666726911538
2,12,1.0009823374836282,0.00025662337202162963,-0.001320237016627685
2,13,1.0009810905005605,0.00030047556820024784,-0.0015818730848838295
2,14,1.000979888754455,0.0003471372781923841,-0.0018641002586062625
2,15,1.0009789399208464,0.00039531913668334535,-0.002158635004183079
2,16,1.0009785356138874,0.0004435707023315625,-0.0024541502634815343
2,17,1.0009790447708016,0.0004904274498471725,-0.0027363302093482995
2,18,1.0009808871088666,0.0005345383224648482,-0.0029886057296685904
2,19,1.0009844959570955,0.0005747421071726537,-0.00319268743118075
2,20,1.0009902690793837,0.000610082645302205,-0.0033295055654931063
2,21,1.0009985209073713,0.0006397933065863035,-0.0033797724515264188
2,22,1.0010094341347062,0.0006632982028328267,-0.003324786104589732
2,23,1.0010230198550178,0.0006802853137731128,-0.003146928616448529
2,24,1.0010390793551058,0.0006908741379835976,-0.0028305142096766702
2,25,1.0010571739207172,0.000695857873962325,-0.002362556721724509
2,26,1.001076598581457,0.0006969429043772805,-0.001733941022962695
2,27,1.0010963764210667,0.0006968879476391977,-0.0009404534506271303
2,28,1.0011152789021907,0.000699460454123526,1.610811498328098e-5
2,29,1.0011318877442006,0.0007091836839802542,0.0011273385144941704
2,30,1.0011446898149046,0.000730891723783223,0.0023779788884476395
2,31,1.0011522077640505,0.000769153053642084,0.003746464655543853
2,32,1.001153143193469,0.0008276641506109,0.0052059783707631025
2,33,1.0011465196903975,0.0009087518159821467,0.006726171279911118
2,34,1.0011317873533476,0.0010131005479676026,0.008275044754466655
2,35,1.0011088807043436,0.0011397507165322568,0.00982092645218483
2,36,1.001078208995931,0.0012863284913241417,0.01133406499465027
2,37,1.0010406004179044,0.0014494234192994507,0.01278788597752257
2,38,1.0009972005099574,0.0016250161125295748,0.014159687424563049
2,39,1.0009493630562598,0.00180887916655212,0.015430958739498051
2,40,1.0008985326125972,0.0019968999242686593,0.01658728998628762
2,41,1.0008461531893516,0.0021853076030576204,0.01761805993750631
2,42,1.0007935867847109,0.00237080395583278,0.018515962743769297
2,43,1.0007420689921562,0.0025506159852200882,0.019276448945178753
2,44,1.0006926714088458,0.002722485728161077,0.01989721886959822
2,45,1.0006462980931468,0.002884623113423341,0.0203776603425567
2,46,1.0006036764296784,0.0030356306240468486,0.02071850906055798
2,47,1.0005653772292793,0.0031744238952504528,0.020921369247106802
2,48,1.0005318156912604,0.003300143152585324,0.020988632312915607
2,49,1.0005032814717278,0.0034120808960233784,0.020923060109450064
2,50,1.0004799366975594,0.0035096043646157915,0.02072801163281264
2,51,1.0004618498051532,0.0035921085004537497,0.02040700494289065
2,52,1.0004489829629066,0.003658957288086247,0.01996431149146182
2,53,1.000441229964118,0.003709471873747186,0.019404361432440728
2,54,1.000438388213417,0.003742892829015483,0.018732805339519557
2,55,1.0004402058308448,0.0037584137890457115,0.01795555880017812
2,56,1.0004463337134677,0.0037551656734391495,0.017080488854938746
2,57,1.0004563912230997,0.003732308727782723,0.016115786043639047
2,58,1.0004698926094457,0.0036890366644297804,0.015072505552475152
2,59,1.000486344989097,0.003624736575860054,0.013961800289364305
2,60,1.0005051412304904,0.003539000366784701,0.012798645493989624
2,61,1.000525707893761,0.003431845201210292,0.01159727924667161
2,62,1.0005473537019203,0.0033036994653268615,0.010376592003921515
2,63,1.0005694863527754,0.0031556465941763234,0.009152944981600186
2,64,1.0005914019745774,0.00298933801968364,0.007947946736328988
2,65,1.0006125846097143,0.002807182937401064,0.006777720484056638
2,66,1.000632419784346,0.0026121470688389246,0.005664111416655343
2,67,1.0006505767181715,0.002407838276572501,0.004619526032620783
2,68,1.0006666313972532,0.002198171188254798,0.003662830018917965
2,69,1.0006805195791812,0.0019872749978086615,0.0027991985936425493
2,70,1.0006920653538405,0.001779154589805434,0.0020417709756030016
2,71,1.0007014626302662,0.0015777010075215471,0.0013864806479714112
2,72,1.0007087539938797,0.0013861302702828271,0.00083962712806256
2,73,1.0007143767835438,0.0012066765761317927,0.00038824650348382134
2,74,1.0007184682638348,0.0010408874850696302,3.3456792639387455e-5
2,75,1.0007213777978778,0.0008905365878378648,-0.0002434361709769937
2,76,1.0007233039908536,0.0007564735737548043,-0.0004446521574036652
2,77,1.0007249469009099,0.0006368913983900148,-0.0005927461300383139
2,78,1.0007264135695155,0.0005283396919780416,-0.0006876126995107374
2,79,1.0007275914059959,0.00042948927130212076,-0.0007462034705224429
2,80,1.0007279681921437,0.00034272903357718883,-0.0007632180933054613
2,81,1.000727785771675,0.0002719544241153548,-0.0007602177080356221
2,82,1.0007272416745485,0.0002200769070512135,-0.0007423770031842096
2,83,1.000726833031716,0.000188213657672918,-0.000743936159572064
2,84,1.0007262710089524,0.00017598174879862973,-0.0007763679263932581
2,85,1.0007255390968512,0.0001829734780849899,-0.0008762353836183344
2,86,1.000724190016917,0.0002065008679522279,-0.0010505025843998363
2,87,1.000721879836044,0.0002409069502550175,-0.001325885651140013
2,88,1.0007189635602347,0.0002744433798973139,-0.0016887831124672158
2,89,1.0007149549013612,0.0002907122342494979,-0.0021335122980258403
2,90,1.000711610706818,0.00027468015726964904,-0.002611628210227322
2,91,1.0007119492144003,0.00019162419062766501,-0.0030642659494146706
2,92,1.0007168772125332,9.74025059218704e-6,-0.003387258518099455
2,93,1.000743163189069,-0.0003616568719041097,-0.0034621222128224513
2,94,1.0007543338923524,-0.0008446799941868369,-0.003094515803637985
2,95,1.0008146964629978,-0.0012017841463890498,-0.002429788268314849
2,96,1.0008817560308851,-0.002347589736385766,-0.0006524285519649841
2,97,1.0007844567701294,-0.003839574689480095,0.0018356339635018691
2,98,1.0015425950278973,-0.004611692333588079,0.0038882440119735037
2,99,1.0004439179870777,-0.010834285121029158,0.016159025936916722
2,100,0.9996506939984307,-0.012208742698569343,0.02180188947221891
2,101,1.0038019807224945,0.051534671657129,0.005627132931280952
3,1,1.0009875006136617,3.274995216029047e-5,-5.5809262828509704e-6
3,2,1.0009891199774905,8.339604000378224e-5,-3.963682177722208e-5
3,3,1.0009886387476485,0.00011133501881015834,-0.0001037595309339572
3,4,1.0009881640096459,0.00013560663606430558,-0.00019158898329262603
3,5,1.0009878271109955,0.00016452230715177665,-0.0002995288653224992
3,6,1.000987434988708,0.00019837749502240373,-0.0004300261748402823
3,7,1.000986923119006,0.00023660643727835062,-0.0005867345812150856
3,8,1.000986300470124,0.0002791113792146241,-0.0007727781530118544
3,9,1.0009855352716925,0.0003249367054717199,-0.000990604047385378
3,10,1.0009846091201087,0.00037176834922071183,-0.0012414654690240787
3,11,1.000983528032237,0.00041582598823086437,-0.0015241287121926458
3,12,1.0009823336932764,0.00045188215592550316,-0.001834272889704234
3,13,1.0009811193764577,0.00047348131381227515,-0.0021635572521109883
3,14,1.0009800420765056,0.00047334023364540195,-0.002499659921987752
3,15,1.0009793277601462,0.00044393055250292523,-0.0028262840484822543
3,16,1.0009792650290397,0.0003781739199793611,-0.003124199132291506
3,17,1.0009801856204923,0.0002701102418110713,-0.0033721740598293224
3,18,1.0009824349558054,0.00011538150978967416,-0.003548541200279306
3,19,1.000986336732059,-8.855871615969607e-5,-0.0036321636282193796
3,20,1.0009921606105172,-0.00034247657922125536,-0.0036034928571975697
3,21,1.0010000954567186,-0.0006454983396395507,-0.003444794063202802
3,22,1.0010102307937283,-0.0009951884578480532,-0.0031404967338922937
3,23,1.0010225387095881,-0.0013874429834785213,-0.0026771362149965562
3,24,1.0010368498711981,-0.0018161878448788094,-0.0020439175576812806
3,25,1.0010528164423733,-0.002273015171797599,-0.001233318261735349
3,26,1.0010698689361524,-0.002746978945283329,-0.0002423744578507255
3,27,1.0010871822810965,-0.003224759044529057,0.0009262669884625944
3,28,1.0011036689242867,-0.0036912889005633804,0.002263200067339483
3,29,1.001118014737443,-0.004130820018361842,0.003751979600213904
3,30,1.0011287659044905,-0.004528286337107806,0.005369324509888541
3,31,1.0011344687867734,-0.0048707403531152976,0.007086484933632389
3,32,1.0011338356433792,-0.00514856763301266,0.008871000774700733
3,33,1.0011259071424592,-0.005356226324650157,0.0106891135349303
3,34,1.001110166790039,-0.0054923817495811725,0.01250782516906649
3,35,1.0010865964280073,-0.005559480187019647,0.014296872448058365
3,36,1.0010556552815832,-0.005562924256325997,0.016029818714867305
3,37,1.001018211652208,-0.005510071082591785,0.017684840980260793
3,38,1.0009754301875058,-0.005409243831583654,0.019244674838703943
3,39,1.0009286592349107,-0.005268896420598455,0.02069647987358685
3,40,1.0008793123831072,-0.0050969896426602546,0.022031140358046666
3,41,1.0008287825384816,-0.004900593586525243,0.02324276458609048
3,42,1.0007783644035388,-0.00468568127251145,0.02432783523791452
3,43,1.0007292169639472,-0.004457079751037516,0.02528471821221014
3,44,1.0006823295440717,-0.004218522867778438,0.02611292295728143
3,45,1.0006385220742828,-0.0039727787362481325,0.026812768042952552
3,46,1.0005984384736188,-0.00372180559798745,0.02738483139345983
3,47,1.0005625660381439,-0.0034669324891291394,0.02782978164854816
3,48,1.0005312401943622,-0.003209028176301543,0.028148019219568398
3,49,1.0005046688860737,-0.0029486778026503015,0.028339627673279633
3,50,1.0004829398032722,-0.0026863299618421666,0.028404201821348295
3,51,1.0004660423361436,-0.0024224540023542584,0.028340861536496557
3,52,1.00045387503138,-0.0021576569437890204,0.02814830067641579
3,53,1.0004462622209893,-0.0018928207943033491,0.02782480168213911
3,54,1.0004429636793124,-0.0016291836871708525,0.02736860025287134
3,55,1.0004436847073057,-0.0013684515399237512,0.02677781528921461
3,56,1.0004480918026928,-0.0011128250152352684,0.02605129785434444
3,57,1.0004558141202187,-0.0008650637114914857,0.02518831924419733
3,58,1.0004664687530929,-0.0006284221978896453,0.024190145783780162
3,59,1.0004796488654828,-0.0004066294321483787,0.023059175757708408
3,60,1.0004949605503075,-0.00020368842298227618,0.021801535587239435
3,61,1.0005119904398905,-2.3738374589612267e-5,0.020425103612085747
3,62,1.0005303548985038,0.0001293028766879718,0.018943448402237616
3,63,1.000549641908212,0.000251980404026275,0.017371856159828156
3,64,1.0005694741378426,0.00034176510899729215,0.015732960859474312
3,65,1.0005894292710082,0.000397288060564705,0.0140496433241962
3,66,1.0006091229120686,0.000418755338452547,0.012352810793859317
3,67,1.000628125032254,0.0004080045515288347,0.010670092834727399
3,68,1.000646056613495,0.0003686443073317486,0.009036508900513511
3,69,1.000662533619967,0.0003057367300819057,0.007478403547437591
3,70,1.0006772653334342,0.0002255802826883663,0.006027966343231846
3,71,1.0006900227127544,0.00013521493196322316,0.004702836414233881
3,72,1.0007006686977604,4.1803746848958226e-5,0.0035255012006790393
3,73,1.0007092128724435,-4.8419572092400734e-5,0.0024993261903735516
3,74,1.0007158064901627,-0.00013046379725747988,0.0016330800768271714
3,75,1.0007206636378165,-0.00019961604658873087,0.0009154262273674698
3,76,1.0007238962054046,-0.00025175223867150985,0.0003437156052283421
3,77,1.0007259050907742,-0.00028698956679802434,-0.00010542009512132876
3,78,1.000727281126985,-0.00031132208815880306,-0.0004432403607132369
3,79,1.0007283712089912,-0.0003304494088883079,-0.0006945234991285913
3,80,1.000728778373948,-0.00034135332595014445,-0.0008632148569566037
3,81,1.0007280776443683,-0.00033181267517079255,-0.000971739358923714
3,82,1.0007263166126374,-0.00028721358776038006,-0.0010368327149342237
3,83,1.0007240345185644,-0.00019767831677732522,-0.0011063081227514241
3,84,1.000721638621683,-6.082301718936327e-5,-0.0012194432228041616
3,85,1.0007192041545199,0.00011909305113147176,-0.001431280338923276
3,86,1.0007164082968194,0.0003301276859703908,-0.0017697022708046727
3,87,1.0007131301524448,0.0005467235918760477,-0.0022592706177478037
3,88,1.0007082474901488,0.0007358200145756381,-0.0028777628529918584
3,89,1.0007037003648451,0.0008570922831374704,-0.003596820559747427
3,90,1.00069920045527,0.0008587095819457304,-0.004320684509551195
3,91,1.0006969035567508,0.0007043174732276408,-0.004971698778580846
3,92,1.0007012508963518,0.0002958915456472453,-0.005400720542451713
3,93,1.0006955539338989,-0.00035243723653783526,-0.0055546622158868025
3,94,1.0007532879646721,-0.0011534976367490147,-0.005555859694152667
3,95,1.0007616061747617,-0.002533317513650218,-0.004557216281942327
3,96,1.0006329853487468,-0.003714719175723405,-0.003476639659661491
3,97,1.0010870460596637,-0.005413156366685147,-0.0030211157350248925
3,98,1.0007125830022994,-0.012493574309447886,0.0035464383259667677
3,99,0.9995442633998796,-0.016998240878364643,0.005921751141951587
3,100,1.0006110714809804,-0.0027352925635088818,-0.0006269244541185101
3,101,1.0005322336317128,0.05519497451656919,-0.0019245553937389226
4,1,1.0009871389080185,5.3116477309824834e-5,-6.852963897904262e-6
4,2,1.0009889733205424,0.00013943430430277899,-4.6963702231036095e-5
4,3,1.000988723839949,0.00019923165735382273,-0.00012362520939398155
4,4,1.0009882777063441,0.00024990912440268844,-0.00023240673600564247
4,5,1.0009877872598216,0.00030326856700313946,-0.0003679418365943196
4,6,1.0009874185832723,0.000365132898647077,-0.000528034104806389
4,7,1.0009870130270548,0.00043637970681779253,-0.0007147660152682199
4,8,1.000986500950955,0.0005164206017653836,-0.0009303871860431525
4,9,1.0009858992573093,0.0006038308643917253,-0.0011745073668275885
4,10,1.000985210026117,0.0006952614596796012,-0.0014441416431116329
4,11,1.000984460873172,0.0007852453917615772,-0.001732476972252116
4,12,1.0009837151310084,0.0008665545110792463,-0.0020285823426104085
4,13,1.0009830755863551,0.000930861602936348,-0.0023170191520936155
4,14,1.0009826900358236,0.0009696802803196151,-0.0025788510179680156
4,15,1.0009827454108082,0.0009754059894910964,-0.0027926356659904424
4,16,1.0009834543937974,0.0009422397515681241,-0.0029364966505942493
4,17,1.0009850330224972,0.0008667343159062111,-0.002989528006914894
4,18,1.000987678092314,0.0007477915042207457,-0.0029333853201098715
4,19,1.0009915479179983,0.0005861466275763437,-0.002752486190265434
4,20,1.0009967557654196,0.0003836065022650486,-0.002434023944146182
4,21,1.0010033732037669,0.0001424333553164971,-0.0019668878762670616
4,22,1.0010114379191646,-0.00013476788259992494,-0.0013411911279614056
4,23,1.0010209471411946,-0.00044451412467932326,-0.0005478131541967546
4,24,1.0010318236764308,-0.0007814100622085903,0.00042058861459544784
4,25,1.0010438525232852,-0.0011370330413662782,0.0015682535774690432
4,26,1.001056603335682,-0.0014992222610636747,0.002893987437831263
4,27,1.0010693659376835,-0.0018521456009649296,0.00438950914040249
4,28,1.0010811214183328,-0.002177282222002166,0.0060380057567170995
4,29,1.0010905837203488,-0.002455233883995999,0.007814456024287292
4,30,1.0010963129447452,-0.002668011040600866,0.00968677503933076
4,31,1.0010968986496067,-0.0028012731278711806,0.011618629934756272
4,32,1.001091149722397,-0.0028459768443457093,0.013572216748631133
4,33,1.0010782670444307,-0.0027991075287955125,0.015511505895859985
4,34,1.0010579317459125,-0.0026634367165052773,0.017404259784785735
4,35,1.0010303349551037,-0.002446526088413062,0.01922379837090462
4,36,1.00099611395985,-0.002159298736313858,0.020949249243018518
4,37,1.0009562700540346,-0.0018145285435942676,0.02256575701497157
4,38,1.0009120339544544,-0.0014254838471264766,0.024063533455334612
4,39,1.0008647678962423,-0.0010048794445892116,0.025437369791040852
4,40,1.000815843255498,-0.0005641613034883577,0.02668533392697908
4,41,1.0007665839968944,-0.00011311317351137934,0.027808265696545785
4,42,1.0007181869843391,0.000340290569929044,0.028808582253148435
4,43,1.000671714825752,0.0007898406771299732,0.029690024506082078
4,44,1.0006280526234659,0.0012309378806373914,0.030456688824249244
4,45,1.0005879346756437,0.0016603647625008987,0.031113045105726583
4,46,1.0005519201626785,0.002076039123434097,0.0316631531478506
4,47,1.00052043554549,0.0024767582177590538,0.0321108837781871
4,48,1.0004937550579118,0.0028619658757360225,0.03245923820884016
4,49,1.0004720465581813,0.0032315295944819076,0.03271069717173778
4,50,1.0004553497349902,0.003585550731413311,0.03286657502182632
4,51,1.0004436195278328,0.0039241788513621045,0.03292744531834384
4,52,1.0004367007772736,0.004247458655997906,0.03289249608062166
4,53,1.0004343677452545,0.0045551650675076435,0.03276001161372844
4,54,1.0004362979715282,0.00484667475697077,0.03252674686002991
4,55,1.0004421091405544,0.005120808828049222,0.03218847831557876
4,56,1.0004513377999946,0.005375732273338453,0.03173949249657269
4,57,1.0004634761897981,0.00560881351409699,0.03117324505338469
4,58,1.0004779632089837,0.005816588078036083,0.0304821648426918
4,59,1.000494223002318,0.005994682616818691,0.02965844874469669
4,60,1.0005116744718772,0.00613792136153841,0.0286944955967952
4,61,1.0005297680957637,0.006240402051705226,0.02758374514947533
4,62,1.0005480140783833,0.006295847297034392,0.026322108374607238
4,63,1.0005660029737102,0.006297921581344104,0.024908439194482476
4,64,1.000583441470952,0.006240878067349457,0.023347237395763006
4,65,1.0006001326113263,0.006120109605474631,0.021647801803258863
4,66,1.000616005560596,0.00593297813337211,0.019828242184795248
4,67,1.000631034252962,0.005679380492124516,0.017911829539147935
4,68,1.00064526547594,0.0053624074352167156,0.01593219678348378
4,69,1.0006586924644045,0.004988515959368848,0.013925363694892341
4,70,1.0006713204383388,0.004567577494600913,0.011936199855323843
4,71,1.000683026983823,0.0041123249929203905,0.010005622172998904
4,72,1.0006936937218387,0.003637623655925847,0.008179217147836745
4,73,1.0007030990269614,0.0031590738515649463,0.006490549092942318
4,74,1.0007111516460634,0.0026916594854343844,0.004972806908411909
4,75,1.000717769137553,0.002249022047540809,0.003640970342550052
4,76,1.0007229269353703,0.0018435494437247471,0.002508971241954417
4,77,1.00072651429736,0.0014837645545841079,0.001571307021233416
4,78,1.0007288663664458,0.0011695458047245191,0.0008199589088027026
4,79,1.0007305957969121,0.0008934287624091712,0.00022929362868320008
4,80,1.000732023972821,0.0006533610736574261,-0.0002160411360378601
4,81,1.00073262933305,0.0004638963176734502,-0.0005361227317549883
4,82,1.0007319105156889,0.00035346221896184575,-0.00074763324449143
4,83,1.0007301163704008,0.0003485416445570293,-0.000895564500159951
4,84,1.0007280459058616,0.0004588579215405343,-0.001036195850500054
4,85,1.0007264892701784,0.0006742872675130665,-0.0012409025752389193
4,86,1.000725656811066,0.0009605260063166244,-0.0015556585781566611
4,87,1.0007244389665657,0.0012614279142322208,-0.0019998928654937007
4,88,1.0007234678531711,0.0015061443015373448,-0.0025430166307734274
4,89,1.000720995776539,0.0016129213790155102,-0.0031062317744640997
4,90,1.0007203017136896,0.0015129062007704266,-0.0035994677606234174
4,91,1.0007193610210303,0.0011149298331619589,-0.003869407850950932
4,92,1.000711199567683,0.00046778347229474757,-0.0039000636065033034
4,93,1.000750250820856,-0.00039387401345998346,-0.0037985278913156206
4,94,1.0007262387675677,-0.0018923273749943373,-0.002984237565781358
4,95,1.000688198968434,-0.0031900062595480753,-0.0025116343973979834
4,96,1.0010126933338297,-0.004529122628102325,-0.0021268108351287134
4,97,1.0006121372768535,-0.00988134742593542,0.002487515872642028
4,98,1.0000829140451675,-0.014383796862880199,0.003002297230278042
4,99,1.0009212228011883,-0.010702769400588556,-0.0020866527535366467
4,100,1.0013103405304127,-0.0015270853489104002,-0.0024708817448683257
4,101,0.9998096763074734,0.05209129947367868,-0.0005510681217408369
5,1,1.0009868642416602,7.356540020918634e-5,-7.791218457678644e-6
5,2,1.000988884555793,0.00020137887318833188,-5.374200236276061e-5
5,3,1.0009886074308907,0.0002971437964545424,-0.00014120831922551135
5,4,1.0009882998625845,0.0003779255198214078,-0.00026327493709921076
5,5,1.0009878540781687,0.0004556394491532118,-0.00041426460606888536
5,6,1.0009874075689107,0.0005388212415994453,-0.0005896700293458838
5,7,1.0009870535923677,0.0006308336008516789,-0.0007867080341413512
5,8,1.0009866491800041,0.0007288544933408461,-0.0010043377516359888
5,9,1.000986137328085,0.0008267397615838566,-0.001238576274511364
5,10,1.0009855429280743,0.0009158453184442652,-0.001481178679969617
5,11,1.0009848785100373,0.000984696520763259,-0.0017194239435613706
5,12,1.000984176329734,0.001019780516913521,-0.0019369282049922412
5,13,1.0009835003205658,0.0010070654183903659,-0.0021140475704917922
5,14,1.0009829493069238,0.0009337197386582429,-0.0022300299949588273
5,15,1.0009826584011299,0.0007896710695254957,-0.0022645423517491576
5,16,1.000982793093663,0.0005685759730716512,-0.0021999478369371835
5,17,1.0009835370370967,0.00026791313539288456,-0.002021832331628655
5,18,1.0009850848043136,-0.00011180355528054422,-0.001719279261310999
5,19,1.0009876423963784,-0.000568324950935125,-0.0012831169493263445
5,20,1.000991442557738,-0.0010988222664155664,-0.0007045032700099835
5,21,1.0009967585836923,-0.0017002404741278967,2.7066517366416874e-5
5,22,1.0010038958582514,-0.0023684940826687504,0.0009236394200899907
5,23,1.0010131343897046,-0.003096692983266122,0.0019978620538924634
5,24,1.0010246180982647,-0.003873070178761977,0.003259572050248663
5,25,1.0010382170434327,-0.0046795021898500076,0.004712502275674845
5,26,1.001053395056662,-0.005491323028860259,0.006350353858459728
5,27,1.0010691397789102,-0.0062787618788392105,0.008155183685246259
5,28,1.0010839799494708,-0.007009850586065078,0.010096950450502875
5,29,1.0010961358520871,-0.00765421416989821,0.01213633213492151
5,30,1.0011037431363754,-0.008186804437153432,0.014228217870337576
5,31,1.001105133811852,-0.008590681012974026,0.016326937180698206
5,32,1.0010990456440194,-0.008858257397656041,0.018389932495752683
5,33,1.0010847845677668,-0.00899097811817311,0.020381416172859507
5,34,1.0010622356715573,-0.008997761782006822,0.02227331606677822
5,35,1.001031845198771,-0.008892798114511111,0.024046184337608467
5,36,1.0009944770896422,-0.008693213386790442,0.02568777463434434
5,37,1.000951324055671,-0.008417025530230205,0.02719251611471554