TITLE="CMs_NON_Orthogonal Re = 10000.0"
VARIABLES = X,Y,Rho,U,V
ZONE
I = 101	J = 101
F=POINT
1,1,1.0001146937254206,-1.4705147400236441e-6,1.2333286640127897e-6
1,2,1.0001145927770723,-2.525228968012035e-6,-1.3275867025031787e-6
1,3,1.000114634209222,-2.6097277924144073e-6,4.933701168335698e-6
1,4,1.0001144988717043,-3.027664315907741e-6,4.375644318595564e-6
1,5,1.0001144424592623,-3.337574772937182e-6,1.2702607020372147e-5
1,6,1.00011437608587,-3.614011220737606e-6,1.4062281500870818e-5
1,7,1.0001143097313319,-3.83136552847492e-6,2.4071702346513627e-5
1,8,1.0001142360288722,-4.020055088184396e-6,2.676784733442315e-5
1,9,1.0001141541644218,-4.148716016890025e-6,3.795080940916177e-5
1,10,1.0001140534519177,-4.275083606508933e-6,4.1484084257563835e-5
1,11,1.0001139400471433,-4.354701878203588e-6,5.347827675223209e-5
1,12,1.000113804219231,-4.453173804132044e-6,5.755947415338904e-5
1,13,1.000113655252005,-4.508115514884493e-6,7.019974655729756e-5
1,14,1.0001134816763617,-4.596432455308579e-6,7.46878683967648e-5
1,15,1.0001132955466514,-4.64043249276127e-6,8.791811612068011e-5
1,16,1.0001130835230578,-4.728964463199896e-6,9.275474524607885e-5
1,17,1.0001128601110727,-4.769526550470413e-6,0.00010658157773148016
1,18,1.0001126096601873,-4.863808753454504e-6,0.00011175377839070518
1,19,1.0001123490911545,-4.904793222601893e-6,0.0001262174510963867
1,20,1.0001120601460687,-5.0075374149774755e-6,0.00013173523108145644
1,21,1.000111762136755,-5.050487896838897e-6,0.00014689230269616965
1,22,1.0001114339193033,-5.1626317999358666e-6,0.00015277450696743702
1,23,1.0001110972598115,-5.207637748489957e-6,0.00016868695271799586
1,24,1.000110727870491,-5.328944315210719e-6,0.00017495227005367064
1,25,1.0001103500876543,-5.375024178781966e-6,0.00019168028154181702
1,26,1.000109936211443,-5.504326965013944e-6,0.00019834067011666499
1,27,1.000109513318621,-5.549583238882133e-6,0.00021593702508093372
1,28,1.000109050018125,-5.684880456547538e-6,0.00022299211766532373
1,29,1.0001085763520472,-5.726550343348381e-6,0.00024149716567751334
1,30,1.0001080569471525,-5.865043711123034e-6,0.0002489290207638191
1,31,1.000107525099848,-5.899531806555222e-6,0.00026836593854419116
1,32,1.0001069411554377,-6.037670631118462e-6,0.00027613401323966754
1,33,1.000106342026426,-6.060601767809328e-6,0.0002965043674668429
1,34,1.0001056834724835,-6.194167808420662e-6,0.00030454086710899345
1,35,1.0001050064645292,-6.200516695089127e-6,0.00032582073720490687
1,36,1.0001042618698712,-6.324844018018287e-6,0.00033402667431423093
1,37,1.000103495245117,-6.309291328286217e-6,0.0003561637290068792
1,38,1.0001026522558154,-6.419824780266126e-6,0.00036440612211062197
1,39,1.0001017836556068,-6.3772210400595725e-6,0.0003873180829401267
1,40,1.0001008295906788,-6.468761245076074e-6,0.00039542881643380893
1,41,1.0000998467012112,-6.3912335502221774e-6,0.00041900403210629343
1,42,1.0000987692903707,-6.456535494209422e-6,0.00042678109320091307
1,43,1.0000976606595666,-6.3453049359507376e-6,0.00045088122175219954
1,44,1.000096448936372,-6.413498744798914e-6,0.0004580914872902843
1,45,1.0000952048941418,-6.341377378063905e-6,0.0004825559670032528
1,46,1.000093850064566,-6.535114071555405e-6,0.0004889411547844441
1,47,1.0000924634723696,-6.6562910110360826e-6,0.0005135960613827138
1,48,1.0000909595608785,-7.1307119113169545e-6,0.0005188829279429931
1,49,1.000089426419593,-7.561865350173215e-6,0.0005435526889266388
1,50,1.0000877708931197,-8.367763697098434e-6,0.0005474645250719851
1,51,1.0000860909502705,-9.079143451535546e-6,0.0005719835972155763
1,52,1.0000842852373943,-1.0119303476362818e-5,0.0005742513812533938
1,53,1.0000824623632227,-1.0976336596110925e-5,0.0005984766353495708
1,54,1.000080512105708,-1.2124743965270388e-5,0.0005988530691250552
1,55,1.000078554456612,-1.3043347148952219e-5,0.0006226802761618199
1,56,1.0000764695809004,-1.4273403688184755e-5,0.000620957096617697
1,57,1.0000743894936752,-1.5270403795823592e-5,0.0006443376463374945
1,58,1.00007218384329,-1.6622500034088552e-5,0.0006403605852496254
1,59,1.0000699972173002,-1.7740981939259436e-5,0.000663315580794642
1,60,1.0000676877849926,-1.9255558795040494e-5,0.0006569990523869664
1,61,1.0000654132726097,-2.052973597169429e-5,0.0006796348871582891
1,62,1.0000630193594622,-2.2238067246387105e-5,0.0006709784976692602
1,63,1.0000606774846503,-2.369274159155729e-5,0.0006935036751418443
1,64,1.0000582197309613,-2.5611790699996925e-5,0.0006826104920274904
1,65,1.000055831870151,-2.7248997547848443e-5,0.0007053548916296238
1,66,1.0000533311689703,-2.9364600065282e-5,0.0006924536142179126
1,67,1.0000509184838575,-3.1152478347464215e-5,0.0007158931293645551
1,68,1.000048394890986,-3.342107422957686e-5,0.0007013681435274563
1,69,1.000045977312419,-3.531175685871133e-5,0.0007261593431642117
1,70,1.0000434490035748,-3.7693447015157535e-5,0.0007105940907143935
1,71,1.0000410442913932,-3.966797406303592e-5,0.0007376253435385762
1,72,1.0000385265815621,-4.217637993549597e-5,0.0007218671661062657
1,73,1.000036149449369,-4.429050182229123e-5,0.0007523360755217625
1,74,1.0000336537745345,-4.702264058280305e-5,0.0007375948247999831
1,75,1.0000313149497322,-4.9410088495050856e-5,0.0007731264982827795
1,76,1.0000288477930441,-5.251440302805867e-5,0.0007611239209564383
1,77,1.0000265533319186,-5.5320674840260955e-5,0.0008039494162424299
1,78,1.000024114862659,-5.890553401267762e-5,0.0007971452937998706
1,79,1.0000218642378966,-6.219411631700367e-5,0.0008503787905459449
1,80,1.0000194434216505,-6.625152888749288e-5,0.0008523247009908939
1,81,1.0000172286841857,-6.997817652158054e-5,0.0009203841178166923
1,82,1.0000148025292204,-7.44339207704013e-5,0.0009362423744087412
1,83,1.0000126103421623,-7.860321311422172e-5,0.00102548297614722
1,84,1.0000101274871016,-8.362717323209725e-5,0.0010629446056270478
1,85,1.0000078691329743,-8.857428625326589e-5,0.0011828625492720938
1,86,1.0000052721549988,-9.484099832136342e-5,0.0012535038884489591
1,87,1.0000028526808367,-0.00010138044682829525,0.0014180414838966156
1,88,1.000000223311145,-0.00011069261276069143,0.0015392134088952757
1,89,0.99999710230895,-0.00012146951353299731,0.0017712608999447814
1,90,0.999993605332468,-0.00013675105895633762,0.001973144222587166
1,91,0.9999890321277995,-0.0001539632977696541,0.0023094749803617256
1,92,0.9999863185280484,-0.00017397919569407108,0.002629560121396257
1,93,0.9999838003407553,-0.00022012682398501297,0.0031328204576612836
1,94,0.9999602535659163,-0.0002515259359941535,0.0036792320893165005
1,95,0.9999567312876865,-0.00032803276458948766,0.004481763027733329
1,96,0.9999424039108396,-0.0002971603349395559,0.005292752798868352
1,97,0.9999995766906681,-0.0007685002223435875,0.006748311060810444
1,98,0.999509862557957,-0.0006488691166401186,0.008882276105824646
1,99,0.9998999303564348,0.0013171038796745767,0.008102089478996934
1,100,1.000895278347878,-0.007662490531531885,0.01568604327911023
1,101,0.995868770848404,0.026316185208776086,0.013821260466710297
2,1,1.0001149574480934,-4.513440564627526e-6,1.2976683018901846e-6
2,2,1.0001147532705883,-9.66002491650121e-6,-6.870555804031523e-8
2,3,1.000114886178787,-1.1819796843963807e-5,1.0882673801681932e-5
2,4,1.000114879657476,-1.4478435404644216e-5,1.7535708534262966e-5
2,5,1.0001149026535667,-1.6712314986127633e-5,3.5393328523910324e-5
2,6,1.000114929962802,-1.8598154346774674e-5,4.783473521405387e-5
2,7,1.0001149313671291,-2.0137761551149498e-5,7.053472126085607e-5
2,8,1.000114924095239,-2.1349745356455598e-5,8.676669353216636e-5
2,9,1.0001148790781613,-2.230335438031793e-5,0.0001124986961571985
2,10,1.000114827466967,-2.306626486099853e-5,0.00013098931356101898
2,11,1.0001147342090226,-2.37074293016814e-5,0.00015862297206150708
2,12,1.0001146399014733,-2.425898340451813e-5,0.0001785533546421091
2,13,1.0001145018793767,-2.4761414364136724e-5,0.00020757457122554473
2,14,1.0001143682556322,-2.5227064971026847e-5,0.0002285903227216309
2,15,1.0001141883813716,-2.568536546064608e-5,0.00025881868041283834
2,16,1.0001140180829042,-2.6135201690506777e-5,0.00028080642376892455
2,17,1.0001137986785038,-2.659993090899085e-5,0.0003122365224517269
2,18,1.0001135936044476,-2.706990367078817e-5,0.0003352055882882334
2,19,1.0001133360608494,-2.7565944900942217e-5,0.00036791724898553965
2,20,1.0001130970490335,-2.807218250078899e-5,0.00039193228545642374
2,21,1.0001128015808054,-2.8608936572369573e-5,0.00042604022861124835
2,22,1.0001125281698307,-2.9155578503311693e-5,0.00045118302297677496
2,23,1.000112193581105,-2.9733060448401755e-5,0.0004868082625526714
2,24,1.000111883805022,-3.0316530525011514e-5,0.0005131556122207184
2,25,1.0001115072909694,-3.092810213159875e-5,0.0005504080668241447
2,26,1.0001111574794255,-3.15388316774606e-5,0.0005780168603933986
2,27,1.0001107344364863,-3.217227099827868e-5,0.0006169824352723073
2,28,1.0001103390448147,-3.2795315438806965e-5,0.0006458773792387937
2,29,1.0001098629273364,-3.343316590460577e-5,0.0006866065631482947
2,30,1.000109414432049,-3.4048439076701135e-5,0.0007167687148507238
2,31,1.0001088766947492,-3.466823195748403e-5,0.0007592657111769544
2,32,1.0001083655962857,-3.525078654997597e-5,0.0007906214635583986
2,33,1.0001077557627016,-3.5825439589791864e-5,0.0008348339296062647
2,34,1.0001071707322626,-3.634602409178398e-5,0.000867244829056434
2,35,1.0001064766223684,-3.684457536203924e-5,0.0009130548378950668
2,36,1.0001058048216105,-3.727054195402113e-5,0.0009463090340772109
2,37,1.0001050129608808,-3.765919748486714e-5,0.0009935261939143895
2,38,1.0001042405494078,-3.7955656739169725e-5,0.0010273325621959785
2,39,1.0001033367674503,-3.819937855094764e-5,0.001075690396275795
2,40,1.0001024496038298,-3.833235572128595e-5,0.0011096764940457385
2,41,1.0001014198203022,-3.8400319038280466e-5,0.0011588332569800696
2,42,1.000100404303427,-3.834056865661961e-5,0.0011925481863152843
2,43,1.0000992353368938,-3.819653332525656e-5,0.0012420928745407122
2,44,1.0000980791517424,-3.788363429986534e-5,0.0012750155652605593
2,45,1.0000967594675303,-3.7427041932183894e-5,0.0013244797998501231
2,46,1.0000954525377963,-3.671703038760926e-5,0.001356033852261785
2,47,1.0000939735060954,-3.57783319489778e-5,0.0014049107073349412
2,48,1.0000925094476547,-3.450896515647774e-5,0.0014344859022867372
2,49,1.0000908666572494,-3.2971032155680116e-5,0.0014822544670296041
2,50,1.000089243726701,-3.109947865258185e-5,0.0015092329565499136
2,51,1.0000874375513065,-2.9006745937351767e-5,0.001555386588226936
2,52,1.0000856590153768,-2.6654327235667108e-5,0.0015791722241731566
2,53,1.0000836948618348,-2.4173838967979267e-5,0.0016232497268699395
2,54,1.0000817690722066,-2.1510122383983284e-5,0.0016433004129584447
2,55,1.000079657126394,-1.87782502476732e-5,0.0016849199131670984
2,56,1.0000775969832483,-1.589224476829961e-5,0.0017007816549398408
2,57,1.00007535161188,-1.2961717086259072e-5,0.001739674391428704
2,58,1.0000731741754467,-9.89188937672717e-6,0.0017510135751165334
2,59,1.000070813696099,-6.805857419082372e-6,0.0017870550015381607
2,60,1.0000685398721827,-3.608039450001554e-6,0.0017936880440007274
2,61,1.0000660859096908,-4.365498526316129e-7,0.0018269266543109609
2,62,1.0000637395260354,2.805805823049315e-6,0.001828847549091826
2,63,1.000061215936913,5.9640776842267636e-6,0.001859531878130741
2,64,1.0000588226910283,9.132848886924902e-6,0.0018569383490991906
2,65,1.0000562545555332,1.2133944592407238e-5,0.001885543593035712
2,66,1.000053841096125,1.5054481982363971e-5,0.001878863944454932
2,67,1.000051253810446,1.7690687033017847e-5,0.001906121292720227
2,68,1.0000488468869697,2.0123774112294723e-5,0.0018960459429084562
2,69,1.0000462653100695,2.212861763195308e-5,0.0019229798011345522
2,70,1.0000438910427354,2.3787195578090928e-5,0.0019105034945703398
2,71,1.0000413388249165,2.4859478805821397e-5,0.0019384839051639828
2,72,1.0000390222478495,2.5432539586489188e-5,0.0019249668964270487
2,73,1.0000365214574392,2.524924669123157e-5,0.0019557875180316563
2,74,1.0000342863489504,2.439134614327783e-5,0.001943048236105988
2,75,1.0000318573421914,2.2561627279877844e-5,0.001979045274329425
2,76,1.000029726392297,1.9802724246161332e-5,0.001969500452465474
2,77,1.0000273883860407,1.5728729707000752e-5,0.002013729590071705
2,78,1.0000253844851825,1.0285017229593582e-5,0.0020106059577907178
2,79,1.0000231565834476,2.9390213974126865e-6,0.002067120581535364
2,80,1.0000213039229071,-6.511918251710044e-6,0.0020747967717965735
2,81,1.0000192039946463,-1.8760614165155785e-5,0.002149070825903299
2,82,1.0000175377130003,-3.422137202430567e-5,0.0021735321021909234
2,83,1.0000155885222732,-5.3840641536843044e-5,0.0022731007504648544
2,84,1.0000141656798052,-7.834896419078655e-5,0.0023228347165803872
2,85,1.0000123769352447,-0.00010894975609726904,0.0024587278049870245
2,86,1.000011218449537,-0.00014611093331894635,0.0025461243138901806
2,87,1.0000097151466418,-0.00019235345564093108,0.002733820545079617
2,88,1.0000089285388538,-0.00024880075190630233,0.0028768620975292204
2,89,1.0000081244437902,-0.00032282581929666334,0.0031419697038505153
2,90,1.0000068933960173,-0.00041074395428407167,0.003376153166076949
2,91,1.0000072721588529,-0.000516093540039233,0.0037579747105685717
2,92,1.0000059949853852,-0.0006526732476233089,0.004133880673461816
2,93,1.000010813841417,-0.0008381932616235979,0.004687437504334974
2,94,1.0000087696875681,-0.0011372166082846947,0.00534284159868638
2,95,1.0000087091554248,-0.0013017358925205295,0.006205113441948588
2,96,1.0000200638252532,-0.002054821544557559,0.007577587698017306
2,97,0.9998904504342596,-0.0026692405181485265,0.009293691727204362
2,98,1.0004750004332077,-0.0011962641096800173,0.008538838065247778
2,99,0.9992374699737598,-0.00751781418039872,0.017528557660471913
2,100,0.9991321058092955,-0.012110581119296571,0.02190485828487679
2,101,1.0032427397833226,0.05094902959328535,0.005742817965888536
3,1,1.0001151223085107,-7.968543178662262e-6,1.4187963744231629e-6
3,2,1.0001148237936357,-1.933925894932198e-5,1.6321725165007882e-6
3,3,1.000114899816236,-2.6924838522947256e-5,1.601777953863511e-5
3,4,1.0001149281445285,-3.447491380406174e-5,2.977960069038596e-5
3,5,1.000114979040411,-4.048403850985287e-5,5.6390909943804185e-5
3,6,1.0001150023311427,-4.5388302015852234e-5,7.954031184318676e-5
3,7,1.0001150081703478,-4.9254320375858695e-5,0.0001133100817652945
3,8,1.00011499217972,-5.2225031678596814e-5,0.00014184437167129996
3,9,1.0001149456569445,-5.450182071913847e-5,0.00017969385179036695
3,10,1.0001148801983457,-5.628928955988437e-5,0.00021120861738457153
3,11,1.0001147866437337,-5.774806418080604e-5,0.0002514120404542088
3,12,1.000114676442796,-5.8997567097786866e-5,0.0002846965624760263
3,13,1.0001145396878133,-6.011430038924358e-5,0.00032649302002072674
3,14,1.0001143889867614,-6.116355654787937e-5,0.00036106593231755106
3,15,1.000114212542292,-6.21825477690696e-5,0.00040421271170336897
3,16,1.000114023947152,-6.320756394317434e-5,0.00043994946576714775
3,17,1.0001138100772424,-6.425213389901886e-5,0.0004844507140374366
3,18,1.00011358528915,-6.533697251964852e-5,0.0005213929276551561
3,19,1.0001133352612548,-6.646222873944301e-5,0.0005673604608007844
3,20,1.0001130748602949,-6.764024322387677e-5,0.0006056138395357524
3,21,1.0001127887818304,-6.886322108043043e-5,0.0006531944502930917
3,22,1.0001124921099067,-7.013928684226016e-5,0.0006928770491355868
3,23,1.0001121687776295,-7.145540772358231e-5,0.000742215733859716
3,24,1.0001118337485826,-7.281722419366415e-5,0.0007834310984956126
3,25,1.000111470455657,-7.420743812119578e-5,0.0008346510328500637
3,26,1.0001110933617134,-7.562985761579262e-5,0.0008774718579473678
3,27,1.0001106857029685,-7.706317312005317e-5,0.0009306604891875734
3,28,1.0001102610320245,-7.85095766216288e-5,0.0009751155262421535
3,29,1.000109802748502,-7.994377153449024e-5,0.001030312280744969
3,30,1.000109323065193,-8.1366495341662e-5,0.001076373922078863
3,31,1.0001088059731957,-8.274851030796265e-5,0.0011335582143906133
3,32,1.0001082619050583,-8.408937387855058e-5,0.001181130301372253
3,33,1.000107675949175,-8.535610341530751e-5,0.0012402099766606353
3,34,1.0001070563147871,-8.654757134270868e-5,0.0012891163539632388
3,35,1.0001063897779858,-8.76274920973056e-5,0.0013499173516094743
3,36,1.000105681885448,-8.859486013789521e-5,0.0013998921561305037
3,37,1.0001049217785327,-8.941087295036273e-5,0.0014621505306121458
3,38,1.0001041119096674,-9.007583398245408e-5,0.0015128314681056708
3,39,1.0001032445436129,-9.054923586780673e-5,0.0015761890891353113
3,40,1.0001023186043463,-9.083309449460115e-5,0.0016271150816325034
3,41,1.000101330310795,-9.088526235018526e-5,0.001691120410617751
3,42,1.0001002746743248,-9.071306541113714e-5,0.0017417349443501157
3,43,1.0000991528652812,-9.028397931401422e-5,0.0018058499684954726
3,44,1.0000979556836325,-8.963028286579831e-5,0.0018555109245592478
3,45,1.0000966902062538,-8.874771274112392e-5,0.001919124853816334
3,46,1.0000953424228438,-8.769850231380874e-5,0.001967121508193976
3,47,1.0000939259610226,-8.649045644701371e-5,0.002029571967859109
3,48,1.0000924212844073,-8.518380319905066e-5,0.0020751496179545748
3,49,1.0000908493932803,-8.376206919489077e-5,0.0021357510462809634
3,50,1.0000891847690245,-8.225542496529675e-5,0.0021781420611964868
3,51,1.0000874567147429,-8.061182773881996e-5,0.0022362193998910654
3,52,1.0000856332153494,-7.884289939500914e-5,0.002274678668082423
3,53,1.0000837526833903,-7.689373271961786e-5,0.002329604713849303
3,54,1.0000817761015317,-7.480141373894563e-5,0.002363448268084867
3,55,1.0000797518225844,-7.254482261054336e-5,0.0024146832384027346
3,56,1.0000776332689683,-7.020037590295149e-5,0.0024433277538592926
3,57,1.000075479202746,-6.77691860140308e-5,0.0024904579485989153
3,58,1.0000732345442214,-6.534350620821933e-5,0.002513457979229862
3,59,1.0000709686794107,-6.292688578742083e-5,0.002556231266807126
3,60,1.000068617182607,-6.061830247225333e-5,0.0025733129361419182
3,61,1.0000662603986825,-5.842213893170599e-5,0.002611670217826891
3,62,1.0000638238038702,-5.644455666101883e-5,0.0026227603008648574
3,63,1.0000613989540323,-5.468969698349235e-5,0.0026568618118426104
3,64,1.00005890038699,-5.3267167142983776e-5,0.002662111418792993
3,65,1.0000564310278381,-5.217650935974084e-5,0.0026923578941839494
3,66,1.0000538935896877,-5.1528043362735717e-5,0.0026921614094654336
3,67,1.0000514025671674,-5.1318775641698485e-5,0.002719211379685852
3,68,1.0000488479400886,-5.166611706624048e-5,0.002714222193716976
3,69,1.0000463560798636,-5.2576754525338286e-5,0.002739007377312002
3,70,1.000043803191403,-5.4190254841325906e-5,0.0027301524695166196
3,71,1.0000413279799898,-5.654219616824906e-5,0.002753893636353904
3,72,1.0000387915607767,-5.981235226861442e-5,0.0027423892850745083
3,73,1.0000363456650119,-6.408341698982493e-5,0.0027666153285685682
3,74,1.0000338345795876,-6.958616673660519e-5,0.002753986565210405
3,75,1.0000314239904318,-7.64559518313462e-5,0.0027805592582350893
3,76,1.000028939097428,-8.496991072505443e-5,0.002768662469127058
3,77,1.0000265604030154,-9.53145607360614e-5,0.0027998053954551598
3,78,1.0000240912184344,-0.0001078140872468607,0.0027908532516993617
3,79,1.0000217272033733,-0.00012272801082777778,0.002829193536096553
3,80,1.0000192452809988,-0.00014042449856642572,0.00282578711610408
3,81,1.0000168600465176,-0.0001612847143410842,0.002874377107979972
3,82,1.0000143045636198,-0.00018580500354669575,0.002879505045314558
3,83,1.0000118401122926,-0.00021480506851202278,0.002941806715787223
3,84,1.0000090909132067,-0.0002492233783152051,0.0029590024542897066
3,85,1.00000645087037,-0.0002901266170264637,0.00303895493474213
3,86,1.000003316296501,-0.0003387568473752445,0.003072228463726462
3,87,1.0000002740617033,-0.00039635150227266863,0.0031736857537320784
3,88,0.9999966105413022,-0.00046968384504498064,0.0032272264095282886
3,89,0.9999923786747984,-0.0005605732013536318,0.003356320112183826
3,90,0.999988686351665,-0.0006765335174410925,0.003434140867574452
3,91,0.999981154654813,-0.0008108387270572952,0.0036055197638042756
3,92,0.9999772844053005,-0.0009745275515339992,0.0037025254416554994
3,93,0.9999625175844312,-0.00123448440005282,0.003928162715568901
3,94,0.9999744059678132,-0.0015209836970502724,0.003939818967741883
3,95,0.9999408847760752,-0.0023425853044152477,0.004606992666807083
3,96,0.9997937040948601,-0.002666748725351035,0.0049593637155210596
3,97,1.0002079485152398,-0.0015968347676897708,0.0028848339771991886
3,98,0.9997622383809567,-0.006335467702770075,0.0068686857697052095
3,99,0.9989941964430882,-0.01272077569416137,0.00914221993825205
3,100,1.000080468517992,-0.0012399877602486081,0.0011144718910317884
3,101,0.9996001992597582,0.05507534963664442,-0.001754122814823988
4,1,1.0001152080321258,-1.210715041081494e-5,1.3234944058447443e-6
4,2,1.000114898079138,-3.108311979077419e-5,3.4847246463537283e-6
4,3,1.0001149348096874,-4.651356568443335e-5,2.0092823449598493e-5
4,4,1.0001149189077612,-6.14302652267119e-5,3.920898160459098e-5
4,5,1.0001149863092125,-7.276067680246608e-5,7.167733457903258e-5
4,6,1.0001150137059582,-8.152471599393294e-5,0.00010293325111318158
4,7,1.0001150108221202,-8.82342268586617e-5,0.00014394160901147335
4,8,1.0001149871206834,-9.329548904216108e-5,0.00018124820501234264
4,9,1.0001149379786338,-9.711550226690878e-5,0.00022670491850374178
4,10,1.0001148658424808,-0.00010005911348457747,0.0002672439467417094
4,11,1.000114771590058,-0.00010241699595893616,0.0003151727581930747
4,12,1.0001146561874357,-0.00010441094294630465,0.0003575629439844919
4,13,1.000114519995484,-0.00010618342065954524,0.0004070863456620501
4,14,1.0001143642353771,-0.00010784761307703118,0.00045079560371922065
4,15,1.0001141894780294,-0.00010946967471524604,0.0005016533592112712
4,16,1.0001139958995207,-0.00011110952050941115,0.0005465681633937546
4,17,1.0001137845982762,-0.00011279063221902683,0.0005987780056099379
4,18,1.0001135548239808,-0.0001145441451582705,0.0006449662434436341
4,19,1.0001133082772862,-0.00011637045761765636,0.0006986589031653188
4,20,1.0001130429406762,-0.00011828649537293454,0.0007462514842351369
4,21,1.000112761362605,-0.00012027971542472031,0.000801588210004306
4,22,1.0001124599473354,-0.00012236019269726644,0.0008507233105742903
4,23,1.0001121423152692,-0.00012450728440207542,0.0009078579255930819
4,24,1.0001118029300242,-0.00012672728291958005,0.0009586542037029665
4,25,1.0001114467493206,-0.00012899306848333417,0.0010177138651274976
4,26,1.0001110659055195,-0.00013130815794941663,0.0010702552624931093
4,27,1.000110666994542,-0.0001336393097964045,0.0011313275903165965
4,28,1.0001102393987733,-0.0001359875460676032,0.001185651101170763
4,29,1.0001097917092407,-0.00013831347944848524,0.0012487724426888819
4,30,1.0001093101224787,-0.00014061582345369108,0.0013048560693322126
4,31,1.0001088056472798,-0.0001428490758425256,0.0013699995818068295
4,32,1.0001082608493683,-0.00014501002532449488,0.0014277500637673677
4,33,1.0001076896553684,-0.00014704734529138867,0.001494813826792243
4,34,1.000107070552806,-0.00014895662801689538,0.0015540547680434294
4,35,1.0001064209723938,-0.0001506813719192863,0.001622850803709165
4,36,1.0001057148779235,-0.0001522171107340697,0.0016833122615467998
4,37,1.0001049738825518,-0.00015350318931164962,0.0017535576704761553
4,38,1.0001041669837243,-0.00015453663024483574,0.0018148685366209812
4,39,1.0001033207540053,-0.00015525436459170138,0.0018861801524457846
4,40,1.0001023987954711,-0.0001556579777771963,0.001947864759183899
4,41,1.0001014335062055,-0.0001556850072739022,0.0020197587044701857
4,42,1.0001003825798784,-0.00015534179008539804,0.0020812389768043245
4,43,1.0000992850186798,-0.00015455835288126745,0.002153136414410995
4,44,1.0000980919370295,-0.00015333018154478726,0.0022137409424001085
4,45,1.0000968498994363,-0.00015156502412356728,0.002284981396315009
4,46,1.0000955031457706,-0.00014924772818023486,0.0023439625101136993
4,47,1.0000941072552993,-0.00014628463473260236,0.0024138251081108077
4,48,1.0000925993361203,-0.00014268682520426256,0.002470383471763101
4,49,1.000091045128933,-0.00013839866894455754,0.002538115085133763
4,50,1.0000893737972874,-0.0001334883640791935,0.002591430789416434
4,51,1.0000876621178767,-0.00012795091682767107,0.002656280254214173
4,52,1.000085830363397,-0.00012190177231744835,0.002705549597725933
4,53,1.000083967240286,-0.00011535409368863719,0.002766806791653526
4,54,1.0000819829700855,-0.00010842679545347206,0.0028112830027398916
4,55,1.0000799789045278,-0.00010111317630859536,0.002868320697050147
4,56,1.0000778539420412,-9.352091427510297e-5,0.002907356412249331
4,57,1.0000757231286275,-8.563350251328413e-5,0.002959672545445122
4,58,1.0000734730734337,-7.757047047883247e-5,0.0029927613766915127
4,59,1.0000712337285123,-6.93239222788673e-5,0.0030400189073525098
4,60,1.0000688781041023,-6.103342694201078e-5,0.00306683353088869
4,61,1.000066551998531,-5.269926017684017e-5,0.0031088960659170204
4,62,1.0000641132282113,-4.447956611438359e-5,0.003129321874621368
4,63,1.0000617244783254,-3.6382582737653364e-5,0.0031662847646632755
4,64,1.0000592267467563,-2.858928039681034e-5,0.00318044898568179
4,65,1.000056800854163,-2.112091196206447e-5,0.003212665971742811
4,66,1.0000542692337624,-1.4186913063384072e-5,0.003220962573425088
4,67,1.0000518322233176,-7.822893193797129e-6,0.003249068976299343
4,68,1.0000492917278634,-2.2665990740547313e-6,0.0032521809519873417
4,69,1.0000468691711815,2.4370294939670917e-6,0.003277115741665736
4,70,1.0000443437853286,6.02619164970944e-6,0.003276037385083092
4,71,1.0000419599316088,8.453392230065998e-6,0.00329906730746457
4,72,1.0000394718213965,9.433048569931147e-6,0.0032951299481930314
4,73,1.0000371489211033,8.912615637686274e-6,0.003317879963526964
4,74,1.0000347177973368,6.566744869967015e-6,0.0033127850122584897
4,75,1.0000324757585373,2.3153789154379852e-6,0.0033372776100854414
4,76,1.0000301184026816,-4.2481111566806675e-6,0.003333139480648788
4,77,1.000027974610987,-1.3281880590073466e-5,0.0033618485203441703
4,78,1.0000257038847058,-2.5349948351521777e-5,0.0033612605158993367
4,79,1.0000236728224419,-4.074079623945298e-5,0.003397183767486082
4,80,1.0000215002133936,-6.023423216738951e-5,0.0034032777003525647
4,81,1.0000195921621007,-8.424460213930021e-5,0.003450004575512966
4,82,1.0000175311574864,-0.0001138965429508234,0.0034665359609328626
4,83,1.0000157286723392,-0.00014989565222050036,0.003528504565146948
4,84,1.0000138027164207,-0.00019381058787701607,0.003559896548801869
4,85,1.0000120704890465,-0.00024643170009452925,0.0036423121461930568
4,86,1.0000103394910322,-0.00030894257946733743,0.0036930246972953946
4,87,1.0000086115179787,-0.0003843567080733144,0.0038025985806353236
4,88,1.0000066299604178,-0.00047450488335729134,0.003879102863523325
4,89,1.0000055011951359,-0.0005886899213213987,0.00402101260289996
4,90,1.000002319144252,-0.0007243752121079608,0.004130550387274368
4,91,1.00000276359407,-0.000884763787441676,0.004303050604625889
4,92,0.9999914577465827,-0.0010653174651240388,0.004463264468118522
4,93,1.0000121309527146,-0.0012319696391772802,0.004536447076585023
4,94,0.9999787871588154,-0.0019854328184977592,0.005039291377736959
4,95,0.9998885273543336,-0.002436840601523947,0.005255568711257903
4,96,1.0001961893881954,-0.0011087877344258296,0.0035557569949815357
4,97,0.9998458709410988,-0.003686936236726332,0.00612404401668177
4,98,0.999430836414428,-0.008501118770216046,0.0069088969059998675
4,99,1.000229052173978,-0.005032672827044852,0.0005096980136011413
4,100,1.0003878880421961,0.0017562015941855434,-0.0019507863240193154
4,101,0.9990412462310323,0.05250916806360789,-0.00038207530064096205
5,1,1.0001153138519678,-1.680776909083777e-5,1.1444409225314084e-6
5,2,1.000114943194869,-4.4726230129346465e-5,5.0755140280137825e-6
5,3,1.0001149819234991,-6.923425183481283e-5,2.320685889109684e-5
5,4,1.0001149429125764,-9.286096700440472e-5,4.602026087877636e-5
5,5,1.0001149842865442,-0.00011065580120146137,8.158781690811842e-5
5,6,1.0001150186027534,-0.0001238080963200422,0.00011802209585302726
5,7,1.000115018437372,-0.00013353828979203035,0.0001630964917799439
5,8,1.0001149885626435,-0.00014077138486498766,0.0002059114294328915
5,9,1.0001149371258906,-0.00014619042553622492,0.0002554760068619863
5,10,1.0001148630261756,-0.00015032339880214317,0.0003015558646578959
5,11,1.000114768291017,-0.00015359184501129663,0.0003536041461226916
5,12,1.000114651893073,-0.00015632461596313353,0.00040155565637612636
5,13,1.0001145161661085,-0.00015874602985928077,0.00045516991862284506
5,14,1.0001143596501334,-0.00016101713825150807,0.0005044339601926931
5,15,1.0001141857283047,-0.0001632403021767141,0.0005593435240974399
5,16,1.0001139918920448,-0.00016549419515038955,0.0006098149392880241
5,17,1.0001137820172814,-0.00016781888016042422,0.0006660445139244287
5,18,1.0001135526106117,-0.00017024887136886228,0.0007178056393108311
5,19,1.000113308306249,-0.0001727915640904504,0.0007754952307765169
5,20,1.0001130442800816,-0.0001754603341547885,0.0008286918991036
5,21,1.0001127660143858,-0.0001782457847211165,0.0008880109332737585
5,22,1.0001124671650385,-0.0001811508056562311,0.0009427952564326273
5,23,1.0001121541852784,-0.00018415627434471406,0.0010039050996684304
5,24,1.000111818935828,-0.00018725902196632414,0.0010604096448075643
5,25,1.0001114689957273,-0.00019043253319069077,0.0011234451463521683
5,26,1.0001110941444014,-0.0001936688053164718,0.0011817685718260773
5,27,1.000110703269065,-0.0001969343874716422,0.001246825903119506
5,28,1.0001102837621052,-0.00020021665463487335,0.0013070212499225631
5,29,1.000109846043233,-0.00020347516376509672,0.0013741464084389453
5,30,1.0001093748081435,-0.00020669274196598997,0.0014362091105691395
5,31,1.0001088822866036,-0.00020982199522481568,0.0015053857986983448
5,32,1.0001083501709807,-0.00021284155730048854,0.0015692410346678754
5,33,1.0001077928440842,-0.00021569750047778974,0.001640378142063707
5,34,1.000107188700539,-0.00021836510574647526,0.0017058681777139726
5,35,1.000106554694226,-0.00022078488283989875,0.0017787877825508264