TITLE="CMs_NON_Orthogonal Re = 10000.0"
VARIABLES = X,Y,Rho,U,V
ZONE
I = 101	J = 101
F=POINT
1,1,1.000484458194585,1.4060495963466694e-5,-1.5199067438778492e-5
1,2,1.0004911273078856,3.246912282046391e-5,-9.80341966223036e-5
1,3,1.0004900182479644,3.0157932912228306e-5,-0.00019498771089023037
1,4,1.0004904596069866,3.095089310190987e-5,-0.0002914430193807683
1,5,1.0004915424144762,3.328076088595013e-5,-0.00039449643067332495
1,6,1.000492951125873,3.510307081578442e-5,-0.0005068305305618321
1,7,1.0004948256262867,3.6269056932301336e-5,-0.0006264982776280219
1,8,1.0004973923178933,3.70407017235591e-5,-0.0007542064382850854
1,9,1.0005007758888729,3.71132263826331e-5,-0.000889421700927941
1,10,1.0005051329308183,3.5814402567226414e-5,-0.0010326386218461306
1,11,1.0005106963777182,3.240361672366744e-5,-0.0011814473352036042
1,12,1.0005177891896835,2.6117264154045965e-5,-0.001333739137596028
1,13,1.0005267947305192,1.6141090728756102e-5,-0.001484204569933338
1,14,1.0005381585957511,1.6843134444989913e-6,-0.001627125237145912
1,15,1.000552345982005,-1.8005724342373287e-5,-0.0017532160025398812
1,16,1.000569792867939,-4.3527311074458434e-5,-0.001852359549844005
1,17,1.0005908113920612,-7.527054075494685e-5,-0.001911221140215717
1,18,1.0006155096408995,-0.00011322841510408811,-0.0019163423733604757
1,19,1.0006436862347372,-0.00015688228807553395,-0.0018530505422172101
1,20,1.0006747529347368,-0.0002050320075597929,-0.001709291937658871
1,21,1.0007076499975347,-0.0002558250943249904,-0.0014756669231557125
1,22,1.000740827972592,-0.0003068814176361734,-0.001149101938077921
1,23,1.0007723025591422,-0.00035565403009325347,-0.0007322705864909114
1,24,1.0007998501366937,-0.00039980080297429303,-0.00023525478236353087
1,25,1.000821295763165,-0.0004375526466940127,0.0003270171880670638
1,26,1.0008348385592214,-0.000467868349286626,0.0009351402659265774
1,27,1.000839295132118,-0.0004904531932736621,0.001568673149210823
1,28,1.000834207989004,-0.0005056132765410483,0.002206690677368965
1,29,1.000819818056626,-0.0005141043200074575,0.0028305425341951834
1,30,1.0007969441876823,-0.0005169485374686186,0.003423596851603169
1,31,1.0007668244410974,-0.0005153029581156325,0.0039730576471326004
1,32,1.0007309370702617,-0.0005103185420972123,0.004468924769024689
1,33,1.0006908476543357,-0.0005030611783449046,0.004905113680667317
1,34,1.0006480714314048,-0.0004944358602029486,0.0052778899007208235
1,35,1.0006039919060419,-0.00048517103324314403,0.005586656502272954
1,36,1.000559795467035,-0.0004757993710525498,0.005832179265339712
1,37,1.0005164619656064,-0.0004666845280102336,0.006017368394669315
1,38,1.000474752392944,-0.00045803180140314824,0.006145507186649259
1,39,1.000435241813039,-0.0004499299089890142,0.006221210866699485
1,40,1.0003983280993918,-0.00044236829600764386,0.006248724759578581
1,41,1.000364279079158,-0.0004352765060790054,0.006233117478571093
1,42,1.000333240548813,-0.000428537388315852,0.006178618864602935
1,43,1.000305283364052,-0.00042201665862229396,0.006090048364599902
1,44,1.0002804014317608,-0.00041556976477803606,0.005971122791813439
1,45,1.0002585550304206,-0.00040905960027796305,0.005826114092750404
1,46,1.0002396566491674,-0.0004023600575502268,0.005658043911942143
1,47,1.000223612226044,-0.0003953612988279641,0.005470586726946223
1,48,1.0002102951451188,-0.0003879758597834305,0.005266059179196893
1,49,1.0001995889660855,-0.00038012919583063203,0.00504762224326307
1,50,1.0001913497225356,-0.00037177664586082954,0.00481695226004515
1,51,1.000185454149853,-0.0003628732774983747,0.004576847557247398
1,52,1.0001817493179819,-0.00035341367421487497,0.004328424253577265
1,53,1.0001801104908925,-0.0003433693848050333,0.004074304641026634
1,54,1.0001803759523502,-0.00033277015802976465,0.0038151040723382757
1,55,1.0001824188843507,-0.0003215895419865583,0.0035534826854051226
1,56,1.000186064434444,-0.0003098959967448775,0.0032895669124516874
1,57,1.0001911803646537,-0.0002976526217125376,0.0030262998189153215
1,58,1.000197573161734,-0.0002849780283738527,0.002763254239577244
1,59,1.000205102275817,-0.0002718086884354427,0.002503941468079152
1,60,1.0002135525298905,-0.0002583324107535567,0.0022472035590128453
1,61,1.0002227759479114,-0.00024444800970420806,0.001997452922618021
1,62,1.0002325388926825,-0.0002304537889408129,0.0017524694858233806
1,63,1.0002426931308332,-0.00021621364296186516,0.0015179415286143269
1,64,1.0002529985105235,-0.00020217897397330626,0.0012900637795948337
1,65,1.0002633199690152,-0.0001881591835801915,0.0010761888053947846
1,66,1.0002734287982933,-0.00017474385113087118,0.0008702125574595751
1,67,1.0002832177029795,-0.00016162041078448004,0.0006815018787015215
1,68,1.0002924899285786,-0.0001494318244372023,0.0005008313581851114
1,69,1.0003011747718251,-0.00013769825366777673,0.00033981263056226147
1,70,1.0003091136419688,-0.0001270128615745784,0.00018542111259125076
1,71,1.0003162716620484,-0.00011675653523185561,5.150787223212019e-5
1,72,1.000322553813028,-0.00010739771811828061,-7.90104892890963e-5
1,73,1.0003279731919608,-9.835826466729262e-5,-0.00019027950233229808
1,74,1.000332473871123,-9.003795403549071e-5,-0.0003027768173530306
1,75,1.0003361030609466,-8.203206615635938e-5,-0.00039867436329622385
1,76,1.000338938447694,-7.470948709179732e-5,-0.0005004263230636014
1,77,1.0003411709206043,-6.797673571978193e-5,-0.0005880216360032181
1,78,1.0003430125314166,-6.233390539506335e-5,-0.0006838056256181193
1,79,1.0003447573023647,-5.82044396152723e-5,-0.0007644053281871343
1,80,1.0003467162920558,-5.660158742948572e-5,-0.0008486653823652087
1,81,1.000349091039862,-5.8285679550082196e-5,-0.0009072957423196658
1,82,1.0003520936925776,-6.33966651718122e-5,-0.0009541317085596739
1,83,1.0003560817945114,-7.086987822367662e-5,-0.0009585172718780386
1,84,1.000361605635465,-7.900911461500865e-5,-0.0009381799114770405
1,85,1.0003691145714808,-8.675429596417204e-5,-0.0008696374048782938
1,86,1.000378511678323,-9.309459691493374e-5,-0.0007763591797322494
1,87,1.0003899878462499,-9.748686192282677e-5,-0.0006392972749313776
1,88,1.0004027365283528,-0.00010119255695820178,-0.000483588824078964
1,89,1.0004157855788818,-0.00010408595835460016,-0.00028743965036782005
1,90,1.00042976162871,-0.00011029883748095101,-6.99041254954572e-5
1,91,1.0004423947194412,-0.0001151237012405023,0.0001952103139652373
1,92,1.000461386494095,-0.00013572728831990456,0.0005017703456176193
1,93,1.0004712968156362,-0.00018343818823755674,0.0009322809044423029
1,94,1.0004670942019063,-0.00022726979124905992,0.0015014260382167097
1,95,1.0004709592289538,-0.000288013533810495,0.0022546624708557664
1,96,1.0005053021470434,-0.00021235465839213583,0.003001789831486763
1,97,1.0006572828606946,-0.0008575096089722537,0.004447761753360498
1,98,1.0000190377714149,-0.0009070608426474662,0.007158034940194761
1,99,1.0004174185321495,0.0007673574204026758,0.0076831193053120556
1,100,1.0015900323507143,-0.007715095061744619,0.01622981938867619
1,101,0.9962879478580756,0.026486697733844305,0.013966810642054198
2,1,1.0004774487016916,9.995538167068337e-5,-3.384154937614606e-5
2,2,1.0004846596455623,0.00020708802260828557,-0.0002065127051539344
2,3,1.0004807884368325,0.00021357721207747733,-0.0004505446892870155
2,4,1.0004800307512234,0.00021709690756055818,-0.0006982879791604072
2,5,1.0004805990836585,0.0002357523524113315,-0.0009547907719319031
2,6,1.0004812413267399,0.00025522164934933366,-0.0012332335523550578
2,7,1.0004822435337941,0.00027290785522916653,-0.0015315461480730108
2,8,1.0004839047644833,0.0002913884473903695,-0.0018488853797352667
2,9,1.0004863970145428,0.00031078935535911107,-0.002184682581322867
2,10,1.0004899300939878,0.0003290762171988931,-0.002538327171401121
2,11,1.0004948669089575,0.0003436738040029272,-0.0029045345847331446
2,12,1.0005016816081662,0.00035164970760631213,-0.003275742539066218
2,13,1.0005109337717972,0.000349372471835624,-0.0036389880909260255
2,14,1.000523246478631,0.0003325333943337875,-0.003977789577322331
2,15,1.0005392697389976,0.00029642909002759184,-0.004269228072447933
2,16,1.0005596069312261,0.00023646216155274384,-0.004486287987947596
2,17,1.00058473059915,0.00014898099868259073,-0.004596558352297677
2,18,1.0006148613105281,3.2437274735969395e-5,-0.004566466613899605
2,19,1.0006498272752358,-0.00011136197535270814,-0.004363007757476635
2,20,1.0006888892643455,-0.0002764059272017544,-0.00396028947244124
2,21,1.00073061412504,-0.0004525420287268222,-0.00334263594977336
2,22,1.0007728492865071,-0.0006267169962554741,-0.0025095799802912397
2,23,1.0008129057914392,-0.0007851254751986175,-0.0014753687327015573
2,24,1.0008478989610339,-0.0009155746629437142,-0.0002686205034838868
2,25,1.0008751940900227,-0.0010092619189974064,0.0010726804402749267
2,26,1.0008927601382962,-0.0010615303302098816,0.002504460330268076
2,27,1.0008993968543767,-0.0010716637039231934,0.003981965612638898
2,28,1.0008947556682948,-0.0010421379704028543,0.005462029001019023
2,29,1.0008792777990017,-0.0009777039632059184,0.006906570241633679
2,30,1.0008540149969447,-0.0008845144871846269,0.008283023390732617
2,31,1.0008204639666842,-0.0007693417211996037,0.00956608568168823
2,32,1.0007803451969273,-0.0006389364768165059,0.010736728404472876
2,33,1.0007354577664795,-0.0004995389641912852,0.011782800661318954
2,34,1.0006875121230252,-0.00035657245280992545,0.012697218946677108
2,35,1.0006380662753276,-0.00021448496400279193,0.013478101035852653
2,36,1.0005884397736977,-7.672982882099348e-5,0.014126698605542684
2,37,1.000539727115149,5.417388519426217e-5,0.014647596457564626
2,38,1.0004927695566104,0.00017651915700500043,0.015046718293561346
2,39,1.0004482100576997,0.0002892746903422055,0.015331863047792531
2,40,1.000406488897879,0.0003919403450360565,0.015510854278890597
2,41,1.000367908939499,0.00048441813906928427,0.015592495480044101
2,42,1.0003326342404764,0.0005668991324291159,0.015584779608911588
2,43,1.0003007487363764,0.000639769057029546,0.015496273100508221
2,44,1.0002722510199447,0.0007035392045328886,0.015334234479970683
2,45,1.0002470997059318,0.0007587842725698685,0.015106444012667057
2,46,1.0002252061833934,0.0008061115593729405,0.014819053507061168
2,47,1.0002064641435462,0.0008461177876369276,0.014478928495290323
2,48,1.0001907461202462,0.0008793875435463606,0.014091029718965229
2,49,1.0001779147957661,0.0009064549245107573,0.013661406050620748
2,50,1.0001678309023014,0.0009278252982305936,0.01319387110811918
2,51,1.000160342039688,0.00094393009292828,0.012693870528797365
2,52,1.0001553107558538,0.000955170787188372,0.012164155066133499
2,53,1.000152573951798,0.0009618576962590711,0.011609846243257473
2,54,1.0001520015564525,0.0009642799633086593,0.011032716734029207
2,55,1.0001534167503328,0.0009626217649775275,0.010437897013920401
2,56,1.0001566977928178,0.0009570655638041545,0.009826254281668471
2,57,1.0001616465429037,0.0009476785340466446,0.009203320284872522
2,58,1.0001681484338711,0.0009345555314748489,0.008569113250088722
2,59,1.0001759744804928,0.0009176701596081476,0.007930018653361544
2,60,1.0001850165335435,0.0008970692136394884,0.00728523040627596
2,61,1.0001950065765444,0.0008726923794499332,0.006642468680680654
2,62,1.0002058450314322,0.0008446292023056189,0.006000043065541956
2,63,1.0002172211698424,0.0008129066093501261,0.00536742335637337
2,64,1.0002290501902522,0.0007777952511130447,0.004741785117372421
2,65,1.000240981736517,0.0007395499388142526,0.004134534246617133
2,66,1.0002529557911122,0.0006987402974667433,0.0035411462453819155
2,67,1.0002645926146525,0.0006559463751809285,0.002974748756904131
2,68,1.0002758690493192,0.0006120809371582138,0.002428179850719225
2,69,1.0002863957558652,0.0005680368442341943,0.0019156110013478997
2,70,1.0002961984302738,0.0005250015215002753,0.0014261124023512662
2,71,1.000304897459653,0.00048410273607746865,0.000973966389453524
2,72,1.0003125854371913,0.0004466204724590175,0.0005435778697616484
2,73,1.000318955999423,0.00041344004023556894,0.0001486049874065665
2,74,1.0003242169746354,0.00038517145684435116,-0.00023095362527277114
2,75,1.0003281473444414,0.00036180103275719965,-0.0005811648494123429
2,76,1.00033109054981,0.0003429071734617836,-0.0009241008569324991
2,77,1.000333069069134,0.00032714900092294477,-0.0012436377426400507
2,78,1.0003347364214372,0.0003120439907873083,-0.0015607313725421407
2,79,1.0003363600060005,0.00029312380544420927,-0.0018527310698841248
2,80,1.0003387973354732,0.0002641717046673886,-0.0021319719487078734
2,81,1.000342395100623,0.00021900145513545477,-0.0023624125415128974
2,82,1.0003476951492163,0.00015552886164502073,-0.0025454308624178234
2,83,1.0003544690764927,7.837173885647713e-5,-0.0026416725747377572
2,84,1.0003628363979011,-3.841767753504583e-6,-0.0026632707093469286
2,85,1.0003723408884153,-8.332042523261685e-5,-0.00259123554797133
2,86,1.000383365379681,-0.00015489540865840247,-0.0024598686784618705
2,87,1.0003952879475886,-0.00021429721565740135,-0.0022674308220546227
2,88,1.0004087610064936,-0.00026513268710671615,-0.0020596126077687357
2,89,1.000422041957009,-0.0003165507886621582,-0.001825632166207552
2,90,1.0004352534614076,-0.0003664037989356311,-0.0015996861175265672
2,91,1.0004513191440405,-0.00043951554614559454,-0.00134919822061742
2,92,1.000465605653838,-0.0005660615968900057,-0.0010618961604373467
2,93,1.0004921256942307,-0.0008164406996961937,-0.0006529878052878466
2,94,1.0004953344900402,-0.001136902537054893,5.163148793639531e-6
2,95,1.0005253554963975,-0.0012259678545555493,0.0007269800972207181
2,96,1.0005678235856343,-0.002008261854303646,0.0021355908449759847
2,97,1.000447248360635,-0.0030896820175756404,0.003941412565647061
2,98,1.0011444691146656,-0.003390961942240201,0.0048081084409717055
2,99,1.0000456661083772,-0.010135480454916385,0.016185259074503244
2,100,0.9994134887076984,-0.01234133498060412,0.021749857669261564
2,101,1.0035307959544852,0.05140912504718884,0.005639377177562882
3,1,1.0004776335621175,0.00019628947086931103,-3.274725114597158e-5
3,2,1.0004876353099936,0.0004521931390469045,-0.0002190321590574621
3,3,1.0004837922783003,0.0005032937537295652,-0.0005174041719912722
3,4,1.0004813304824174,0.0005063660491372426,-0.0008457656369578784
3,5,1.000481880646956,0.0005380654049262319,-0.0011770927279484652
3,6,1.0004829936471522,0.0005803614720585655,-0.001527053393098882
3,7,1.0004840155778565,0.0006177707761475208,-0.0019027154698558829
3,8,1.0004855746869252,0.000653211310924278,-0.002301520602792852
3,9,1.0004879591020903,0.0006872050687923292,-0.002720434585540403
3,10,1.0004913398882338,0.0007141390709991012,-0.0031569940116922147
3,11,1.0004960171445065,0.0007265265234726881,-0.0036034565567363073
3,12,1.0005024173982122,0.0007162583853410044,-0.004048143457279146
3,13,1.0005110372775623,0.000674052685037999,-0.004472688357879861
3,14,1.0005224237914767,0.0005893928719652344,-0.004853369538871754
3,15,1.0005371593252153,0.00045129869556821244,-0.0051583584168853214
3,16,1.0005558333318265,0.00024984827290657386,-0.005349981628588801
3,17,1.0005789788488229,-2.141882856184776e-5,-0.005385115063818286
3,18,1.000606950641997,-0.0003624588614775812,-0.005221494680212235
3,19,1.000639718973854,-0.0007640751249152573,-0.00482271540564333
3,20,1.0006766261265745,-0.0012070224543900925,-0.004166655816176577
3,21,1.0007162159129517,-0.0016638679465207356,-0.003249055921130556
3,22,1.0007562579304312,-0.002103363827589705,-0.002086040409296427
3,23,1.0007940213859887,-0.002495914125453804,-0.000710131451319609
3,24,1.0008266964798092,-0.0028181781370566457,0.0008339638112618884
3,25,1.0008518280742595,-0.0030555269156669596,0.0024964289416601624
3,26,1.0008675999593106,-0.0032021981315703473,0.004226341088315695
3,27,1.0008729855889706,-0.0032599658543620755,0.005976324932536033
3,28,1.0008677430770845,-0.003236232720946032,0.007703912544812701
3,29,1.0008523550120854,-0.0031421313613072157,0.00937386978445827
3,30,1.000827861917108,-0.0029908188389835867,0.010957795082825465
3,31,1.0007957058192236,-0.002796041957764192,0.012434968504439281
3,32,1.0007575180894583,-0.0025710048770755576,0.013790834981802043
3,33,1.0007149858466602,-0.0023275733355934457,0.015017056136495153
3,34,1.000669693632266,-0.0020758090649525586,0.01610954623504998
3,35,1.0006230743293563,-0.0018237880773789657,0.017068379702691764
3,36,1.000576328214638,-0.0015776439375710257,0.017895885354446465
3,37,1.000530449017772,-0.0013417451364870282,0.018596787869452836
3,38,1.0004861919388754,-0.0011189607001238116,0.019176550952753946
3,39,1.0004441387665657,-0.0009109369364804717,0.01964185619485757
3,40,1.0004046817529508,-0.0007183843012507636,0.019999174506612944
3,41,1.0003681002874951,-0.0005413147939587104,0.020255560093881617
3,42,1.000334540813212,-0.0003792657953714526,0.020417341262784036
3,43,1.0003040920039614,-0.0002314546346198001,0.02049118261281245
3,44,1.0002767534118486,-9.692670892293846e-5,0.020482762991712828
3,45,1.000252506356978,2.5367155295561058e-5,0.020398090453207996
3,46,1.0002312706380236,0.0001364800856667243,0.020242033051246354
3,47,1.000212972901574,0.00023744749907129493,0.020019925483151072
3,48,1.0001974927778725,0.00032922973279344523,0.01973580817695447
3,49,1.0001847317176429,0.00041272560609405403,0.019394429278789368
3,50,1.0001745497594814,0.0004887282145524436,0.018999016272337323
3,51,1.0001668376806583,0.0005579593459078507,0.018553852751388145
3,52,1.0001614448610692,0.0006210243693392374,0.01806134991032615
3,53,1.0001582571348209,0.000678458894922201,0.017525470808346877
3,54,1.0001571156332456,0.0007306731472190611,0.016947784660266342
3,55,1.0001579022408542,0.000778005767295272,0.01633212793263833
3,56,1.0001604491461367,0.0008206521994747703,0.015679210996195514
3,57,1.0001646332457101,0.0008587267333117975,0.014993046178608025
3,58,1.0001702765384566,0.0008921781208293727,0.014273533163355901
3,59,1.0001772498205148,0.0009208679052911491,0.013525340510438251
3,60,1.0001853648775774,0.0009444806771161389,0.012747725471564159
3,61,1.0001944858412275,0.0009626279536567084,0.01194670666648449
3,62,1.000204415887287,0.00097476746638792,0.011121186358885253
3,63,1.0002150116934483,0.0009803528756150298,0.010279366944069286
3,64,1.0002260703083732,0.0009787898049086953,0.0094200727009264
3,65,1.0002374383261676,0.0009696491110410118,0.008554411012519251
3,66,1.0002489098988212,0.000952670588326582,0.007681098113275868
3,67,1.0002603162117147,0.0009280126276735832,0.006814340794245173
3,68,1.0002714513369435,0.0008962543259351199,0.00595205962783227
3,69,1.0002821266128104,0.0008585719384507479,0.005110848852665728
3,70,1.0002921510322376,0.0008166617538888289,0.00428632535835869
3,71,1.0003013214813092,0.0007727770820395814,0.003495896887067331
3,72,1.0003094859457655,0.0007295078662290547,0.002731054219498321
3,73,1.0003164680547887,0.0006893263356439703,0.002008250134756675
3,74,1.0003222479192175,0.0006539309207211358,0.0013137209063266535
3,75,1.0003267499482633,0.0006238355043568714,0.0006628608323002804
3,76,1.000330116307403,0.0005985449039755268,3.862823268290368e-5
3,77,1.0003324460410918,0.0005761196965717137,-0.000542451746966202
3,78,1.0003342320203388,0.0005518155402508315,-0.001097717500401309
3,79,1.000335852950856,0.00051638610490974,-0.0016053696128856432
3,80,1.0003379898157456,0.00045694015086654796,-0.0020748756005666722
3,81,1.000341068606621,0.0003613280244878988,-0.002471830956468391
3,82,1.0003457974525474,0.00022582022987962418,-0.0027961698435391962
3,83,1.0003521899585708,6.091191059430391e-5,-0.0030098196747141803
3,84,1.000360141207535,-0.00011187579604162693,-0.0031214881587980007
3,85,1.00036876636979,-0.0002706058976069123,-0.0031133686849600405
3,86,1.000377644467463,-0.00039461863137310214,-0.0030242412934896757
3,87,1.0003872475150297,-0.00047179683729618266,-0.002870354991608431
3,88,1.0003965589408002,-0.0005082996597526438,-0.0027104492926089446
3,89,1.000406396442906,-0.0005202096136277994,-0.002566795632259878
3,90,1.000416662067783,-0.0005333597707806685,-0.002466413099516829
3,91,1.0004248655735637,-0.0005690002044264701,-0.002397505262189284
3,92,1.0004378193353989,-0.0007354542528228095,-0.0023413371259397805
3,93,1.0004329501955158,-0.0010652060198367845,-0.0022208037518962197
3,94,1.0004771554429814,-0.0014237313937077902,-0.0022357871984389466
3,95,1.000467582471403,-0.0022007208285567985,-0.0015531292899466725
3,96,1.000325123819057,-0.002634571218346697,-0.0010822216502799874
3,97,1.0007678019431825,-0.003404103345194066,-0.00180283234962888
3,98,1.0004015760724503,-0.010404828824076574,0.003954448245868575
3,99,0.9993531754704646,-0.0161362374036047,0.0062950923575379545
3,100,1.0003437941795363,-0.002708168884356414,-0.0005047441582867058
3,101,1.0002004456715308,0.055081987433829846,-0.0019449120079088782
4,1,1.000476263412488,0.00029915283921013927,-3.3593888981541086e-5
4,2,1.0004865997712853,0.0007129624672955807,-0.0002197621975894204
4,3,1.0004843069655749,0.0008405915439020927,-0.0005227047967903552
4,4,1.000481792133535,0.0008598782964692938,-0.000875121300817241
4,5,1.0004811299639902,0.0008984518487105689,-0.0012397810148025712
4,6,1.0004821682767344,0.0009632269730106051,-0.001613358243628437
4,7,1.0004833485248772,0.0010288494174054486,-0.002007879945523289
4,8,1.000484582442744,0.0010893260212819032,-0.002426783971488178
4,9,1.0004864885971818,0.0011457575890914248,-0.0028635116276002053
4,10,1.0004893138161628,0.0011914280523756715,-0.0033122336623820107
4,11,1.0004932646802394,0.0012145219970119822,-0.0037632015390776695
4,12,1.0004986947869057,0.001201466860386239,-0.004201731449086346
4,13,1.0005060648503614,0.0011365010492584695,-0.004604578370728338
4,14,1.000515928875849,0.0010013719661486078,-0.004940792557405732
4,15,1.0005289444021261,0.0007769077719090408,-0.005169018998602765
4,16,1.0005458804721572,0.00044676824277456884,-0.00524101347384516
4,17,1.000567527577596,2.9121524848959117e-6,-0.005104988851878973
4,18,1.0005944848088995,-0.0005487007729637193,-0.004716013531438633
4,19,1.0006268170074717,-0.0011848150846168494,-0.004043917265170543
4,20,1.0006637313881068,-0.0018662411058926174,-0.0030820773099107576
4,21,1.0007034413909663,-0.0025442207705011683,-0.0018475030001083939
4,22,1.0007433484450703,-0.003169512576469978,-0.0003784315345845787
4,23,1.0007804739770845,-0.0037007758036613227,0.0012747397975259537
4,24,1.0008119455675093,-0.004109546498649306,0.003055619381873143
4,25,1.0008353834273864,-0.004381353232858706,0.004909283700691662
4,26,1.0008491054263262,-0.004514120018082364,0.006784312210237773
4,27,1.0008522439815553,-0.0045154996993087525,0.00863648328737201
4,28,1.0008447196825474,-0.004400036154870431,0.010428291767684067
4,29,1.0008271891989806,-0.004186549827636587,0.012131133176141826
4,30,1.0008008424221917,-0.003895791155376028,0.013723509754780922
4,31,1.0007672551513154,-0.0035485037198103617,0.015192121382050663
4,32,1.0007281318668442,-0.0031639433032043204,0.01652909674232003
4,33,1.0006852038648368,-0.002758928107289606,0.017732534261036013
4,34,1.000640034464211,-0.002347357770735101,0.018803483976506125
4,35,1.0005940250446896,-0.0019401314355976431,0.019746591636445154
4,36,1.0005482973282034,-0.0015453336676111615,0.020567344235564312
4,37,1.0005037810789814,-0.0011685829926419515,0.02127307735997362
4,38,1.0004611375885613,-0.0008134554244372918,0.021870615151955743
4,39,1.0004208858264816,-0.0004819091987510461,0.02236762025961192
4,40,1.0003833348136122,-0.00017468823684849526,0.022770575299300252
4,41,1.0003487182474855,0.00010834485474540299,0.023086353290269906
4,42,1.0003171194561888,0.00036791787536560996,0.023320432096739896
4,43,1.000288601156041,0.0006051453800768742,0.02347856109489127
4,44,1.0002631194678973,0.0008213486582783811,0.02356511150997622
4,45,1.0002406458636193,0.0010179595308988927,0.02358475832831537
4,46,1.0002210723455751,0.0011964162561574287,0.023540896485786417
4,47,1.0002043268635967,0.0013581399943739885,0.02343730754668338
4,48,1.000190272605938,0.001504470074212514,0.023276585087262058
4,49,1.000178819161455,0.0016366849733116993,0.023061801897858242
4,50,1.0001698178262863,0.0017559488938102962,0.022794878655178104
4,51,1.0001631707843808,0.001863359394474966,0.022478315473265304
4,52,1.0001587230350801,0.001959885367188776,0.022113405291088805
4,53,1.0001563718134625,0.002046431075004565,0.021702155814535277
4,54,1.0001559548109569,0.0021237515313257756,0.021245191711837193
4,55,1.000157362176426,0.002192528154661914,0.02074408199152172
4,56,1.0001604203619112,0.00225325248414188,0.0201986889499886
4,57,1.0001650091741834,0.0023063111140238825,0.019610241778401257
4,58,1.0001709407232964,0.0023518344513805954,0.018977768518926887
4,59,1.0001780837075633,0.0023897961761324585,0.018302422301577075
4,60,1.000186237510361,0.002419844896752159,0.017582467460743666
4,61,1.0001952648323453,0.0024414438495682887,0.016819559803835846
4,62,1.0002049614922255,0.00245372944504475,0.016011543394823878
4,63,1.0002151954884246,0.002455721484710163,0.015161580834390757
4,64,1.0002257729420143,0.0024462541819901314,0.014267759819081939
4,65,1.0002365776821052,0.0024242676742198804,0.01333611494260712
4,66,1.000247435113604,0.0023888377584567427,0.012365778410132014
4,67,1.0002582429251987,0.0023395153552175103,0.011366993326669267
4,68,1.0002688387664962,0.0022764361758642712,0.010340378037148518
4,69,1.0002791150152737,0.002200603675819277,0.00930098103707332
4,70,1.0002889047522336,0.002113932408763918,0.008250302376096736
4,71,1.0002980741034881,0.002019300741587441,0.007207380456122235
4,72,1.00030644283525,0.0019204148321973603,0.006172745107177293
4,73,1.0003138551745858,0.0018212572033503066,0.005167317337787714
4,74,1.0003201710237846,0.0017250983971196703,0.004188131161783812
4,75,1.0003253140533805,0.0016335422591000365,0.003255703740315323
4,76,1.000329311193097,0.0015465430037826652,0.00236270252693397
4,77,1.0003322482099974,0.0014621209951588177,0.001529628632664482
4,78,1.000334393822532,0.001374431852200523,0.0007465661878071991
4,79,1.0003361026361477,0.0012710104204942834,3.5554532642523063e-5
4,80,1.0003379471125924,0.001134156330947181,-0.0006123867063257017
4,81,1.0003405124595284,0.0009474992117506936,-0.0011703388280868794
4,82,1.0003445822314245,0.0007053005075511864,-0.0016442035664723878
4,83,1.0003508795029843,0.00041927520569272103,-0.0020043474599245733
4,84,1.0003596193173692,0.00011599764425205167,-0.002255420691091835
4,85,1.0003700970051899,-0.00017008309802769297,-0.0023709709188434428
4,86,1.0003817526284169,-0.0004017597108891094,-0.002370235574156221
4,87,1.0003934620841906,-0.0005485812131069027,-0.0022562979834078226
4,88,1.0004064093546001,-0.0006113423332593152,-0.0020903840113276955
4,89,1.0004189666349173,-0.0006251871614193566,-0.0018820656525996462
4,90,1.0004325255295328,-0.0006199017978266408,-0.0016881145744418395
4,91,1.0004470797543235,-0.0006849709193177516,-0.001457558172573255
4,92,1.0004477752068583,-0.0008471503611757771,-0.001221691673976933
4,93,1.0004915848564098,-0.0011171019183530565,-0.0011235945548060833
4,94,1.0004707056518682,-0.001935969810231849,-0.0005453688731856579
4,95,1.0004185393524867,-0.0024114963083654776,-0.00041554354789634205
4,96,1.0007384108372657,-0.0025225604717483787,-0.000792819845883894
4,97,1.0003546377055297,-0.007191348500551403,0.0033668452267643467
4,98,0.9998916250420835,-0.012294201146587797,0.003837780580573868
4,99,1.0006683211633594,-0.00942715341773035,-0.0018788347373668841
4,100,1.000990107811088,-0.0013531645413335834,-0.0026337578059145573
4,101,0.9995580721043446,0.05192940729877633,-0.0005614720071163037
5,1,1.0004744074196534,0.00039717427553693266,-3.321841957568526e-5
5,2,1.000484483237422,0.000966568038591309,-0.0002179455525456253
5,3,1.0004822726151648,0.0011703813942828187,-0.0005154583451329964
5,4,1.0004805590272445,0.0012181552850805161,-0.0008601463308733655
5,5,1.0004795420116674,0.0012655935917198432,-0.0012265908090615782
5,6,1.0004793806799095,0.0013400029592337433,-0.0016059467139772695
5,7,1.0004800959737532,0.0014245601246624816,-0.001998195185021056
5,8,1.0004808525873727,0.0015027090126825252,-0.0024107077597763926
5,9,1.0004817310441787,0.001567461087788033,-0.002840117651922072
5,10,1.0004832747601888,0.0016102706539014753,-0.0032768787375741693
5,11,1.000485728951238,0.0016145790624379577,-0.003707761196463932
5,12,1.0004893850536973,0.0015582975851629538,-0.004114489462247243
5,13,1.000494739688823,0.001415305553877204,-0.004466657455526621
5,14,1.0005025014014581,0.0011562087676481251,-0.0047225699838524555
5,15,1.0005135892124888,0.0007522127713606173,-0.004827588222670786
5,16,1.0005291326282524,0.0001830527214566687,-0.004722158512971426
5,17,1.0005502611812482,-0.0005533149494406711,-0.004349673312213095
5,18,1.0005777419204493,-0.0014335167794899408,-0.003671942682771119
5,19,1.0006114766981293,-0.002408440013837017,-0.0026765664340541668
5,20,1.0006502209256556,-0.0034110761513966607,-0.0013824237455839943
5,21,1.0006916165644686,-0.004369787236248605,0.00016840855446325278
5,22,1.0007326278314004,-0.005221359204291071,0.0019177405002975352
5,23,1.0007700737060392,-0.0059193990263285015,0.0038042151222234936
5,24,1.0008010747691092,-0.006436749138095668,0.005766907298659166
5,25,1.000823346632416,-0.00676387527270612,0.007752125247474326
5,26,1.0008353386858004,-0.006905532936442382,0.009711532623832578
5,27,1.0008363724899287,-0.006877293310616439,0.011606729877485782
5,28,1.000826560340184,-0.006702121118151516,0.013405995835068896
5,29,1.0008067879933396,-0.006407196488486871,0.0150883227897904
5,30,1.0007784020860253,-0.00602095627723474,0.016638730558470805
5,31,1.000743134008391,-0.0055707279842984025,0.018051453000638148
5,32,1.0007027219937439,-0.005080982750848727,0.019324159076709202
5,33,1.0006589429157187,-0.004572377784172106,0.020460993303382625
5,34,1.0006132888282036,-0.0040613700303549745,0.021466648991501865
5,35,1.000567144970963,-0.003560354077779631,0.0223498779075048
5,36,1.0005215183147704,-0.003078052607735104,0.023117899078768933