TITLE="CMs_NON_Orthogonal Re = 10000.0"
VARIABLES = X,Y,Rho,U,V
ZONE
I = 101	J = 101
F=POINT
1,1,1.000892710694895,5.485480252970048e-7,-2.640238841835158e-6
1,2,1.0008937351731977,3.915639630392938e-6,-1.7169275862785202e-5
1,3,1.0008936594532607,3.895829372820338e-6,-3.592453608874273e-5
1,4,1.0008939019705196,4.025719390859963e-6,-5.7600413289818896e-5
1,5,1.0008941588255147,3.703525622533417e-6,-8.363128909581516e-5
1,6,1.0008944184969792,2.413388147240055e-6,-0.00011507040864608261
1,7,1.0008947038875367,-4.659703161843816e-7,-0.00015271475812856977
1,8,1.0008950285191478,-5.787546803141034e-6,-0.00019766930480863833
1,9,1.0008953863112138,-1.4736427407105392e-5,-0.0002509750877719448
1,10,1.000895762443105,-2.8847211852311264e-5,-0.00031383469978167166
1,11,1.000896131913778,-4.998832559639333e-5,-0.0003871112676972242
1,12,1.0008964691665765,-8.032368499247063e-5,-0.00047145102419748875
1,13,1.0008967568665135,-0.0001222505908370796,-0.0005667549748945593
1,14,1.0008970003654523,-0.00017829556869220124,-0.0006722436490407384
1,15,1.000897243288087,-0.00025098049323258985,-0.0007859784582429485
1,16,1.000897584840753,-0.0003426386375043101,-0.0009049638228548669
1,17,1.000898190409835,-0.000455229268722206,-0.001024845410847143
1,18,1.0008992933830472,-0.0005901497163338848,-0.0011401587443870284
1,19,1.0009011809356507,-0.0007480995052595006,-0.0012442683899358377
1,20,1.0009041675768477,-0.0009289771225366592,-0.0013297457098627682
1,21,1.00090855557008,-0.001131840310184489,-0.0013884722287095985
1,22,1.0009145905221715,-0.0013548961855668906,-0.001412056709203956
1,23,1.0009224129238996,-0.0015955440544092292,-0.0013920378957875848
1,24,1.000932013264605,-0.0018504447891019894,-0.0013203482547061043
1,25,1.000943191019324,-0.0021156400968118756,-0.0011896654603312825
1,26,1.0009555247450799,-0.0023867016767347305,-0.0009939971480534054
1,27,1.0009683556581546,-0.002658924390246021,-0.0007291869561720443
1,28,1.0009807959790393,-0.0029275366097259213,-0.00039352635083878906
1,29,1.0009917686005594,-0.003187926181921731,1.1817574821886197e-5
1,30,1.0010000835643418,-0.0034358519391853594,0.00048246901126821256
1,31,1.0010045413239315,-0.0036676487781246627,0.0010108139079417896
1,32,1.0010040514512046,-0.003880417115882994,0.0015862113777471776
1,33,1.0009977482290242,-0.004072180780677569,0.0021955927095452217
1,34,1.0009850885492526,-0.004241934717185089,0.002824328201618513
1,35,1.000965913019302,-0.004389563935996424,0.0034572285650007317
1,36,1.0009404632777648,-0.004515660411246963,0.00407947484283447
1,37,1.0009093509944194,-0.004621311851845872,0.004677379330040125
1,38,1.0008734914536859,-0.0047078956569986735,0.005238943790546854
1,39,1.0008340112117315,-0.00477691180483056,0.005754171981842687
1,40,1.0007921522948602,-0.004829849764141444,0.006215214389529267
1,41,1.0007491791478287,-0.004868100159252027,0.006616297950490573
1,42,1.0007063065407629,-0.004892894872963624,0.006953602425724446
1,43,1.0006646411716869,-0.0049052810522682,0.007224981323269886
1,44,1.0006251506403319,-0.004906110707497392,0.007429756321827272
1,45,1.0005886402668074,-0.004896051803174176,0.007568381556585272
1,46,1.0005557546298975,-0.004875603315618737,0.0076422897520588475
1,47,1.0005269742792717,-0.004845123057674465,0.007653576172175987
1,48,1.0005026353680824,-0.004804851326314034,0.007604964431004862
1,49,1.0004829307305956,-0.004754943776008098,0.0074995175813674176
1,50,1.0004679378750019,-0.004695494139671929,0.0073407530244056045
1,51,1.0004576141507082,-0.0046265681494245935,0.007132340359498917
1,52,1.0004518303514274,-0.004548219535118462,0.006878388995348476
1,53,1.0004503543477101,-0.004460526821807638,0.0065830528445394105
1,54,1.0004528932399683,-0.004363595451031308,0.006251038706659485
1,55,1.0004590621615976,-0.0042576055126763625,0.005886984428891048
1,56,1.0004684417964411,-0.004142785052826501,0.005496298971546684
1,57,1.0004805292804515,-0.0040194880707065195,0.0050840836282146995
1,58,1.0004948201210795,-0.0038881065385784484,0.004656547268764712
1,59,1.000510736806974,-0.0037492219389978496,0.004219052467660109
1,60,1.0005277443833356,-0.0036033892753091793,0.003778621050590569
1,61,1.0005452503245682,-0.003451452695720916,0.003340323771530809
1,62,1.0005627603099783,-0.0032940750309955256,0.002911924088957898
1,63,1.0005797411057102,-0.00313238544563799,0.0024971560482932656
1,64,1.000595817132096,-0.002967045274717488,0.002104497130694859
1,65,1.0006105899204032,-0.002799475053920948,0.0017347801265103738
1,66,1.0006238655252597,-0.00263021890068307,0.0013974080250810992
1,67,1.0006354296455493,-0.0024609337669763576,0.0010885274027650086
1,68,1.0006452939301251,-0.002292005223961871,0.0008188944674498359
1,69,1.0006534379621006,-0.0021251719440310286,0.0005787000951886706
1,70,1.000660035782751,-0.00196076927007759,0.00038039212901346903
1,71,1.00066519725355,-0.001800357365588138,0.00020830229475991545
1,72,1.0006692189871451,-0.0016442649419177832,7.641837062911003e-5
1,73,1.000672296397969,-0.001493878113894993,-3.549872198883116e-5
1,74,1.0006746383952452,-0.0013496257634353767,-0.0001117015793057812
1,75,1.0006763607594003,-0.0012123754678358908,-0.00017502516921090097
1,76,1.0006778133629946,-0.0010822739807123621,-0.00020860415212981359
1,77,1.000679217127848,-0.0009602871855758674,-0.00023695421012086254
1,78,1.0006805360888629,-0.0008469825958425049,-0.00024047038305461356
1,79,1.0006814875375118,-0.0007430069684501525,-0.0002424778614770407
1,80,1.0006821063891929,-0.0006477733787931236,-0.00022092485067803423
1,81,1.0006826458032132,-0.0005606938820856592,-0.00020151663853653238
1,82,1.0006834930752662,-0.0004804036001113371,-0.00016355145889136526
1,83,1.0006847564970525,-0.00040625066292991624,-0.00013658183798224638
1,84,1.000686434416789,-0.0003371626463854722,-9.970872944102805e-5
1,85,1.0006884094744466,-0.0002736040307999474,-8.445174503558105e-5
1,86,1.0006904734798334,-0.00021543161900362394,-6.748055147057729e-5
1,87,1.0006926737353559,-0.00016536666875649166,-8.139245188255714e-5
1,88,1.0006945256669997,-0.00012512017115090648,-9.518137185095897e-5
1,89,1.0006960080726055,-9.661142051824921e-5,-0.00013583523984333847
1,90,1.000697122138766,-8.323212535064808e-5,-0.00015764658435548135
1,91,1.000697388389622,-7.91257851492064e-5,-0.00017618013954347615
1,92,1.0007065208419863,-0.00010399493292163566,-0.00012331428234835134
1,93,1.000709501965863,-0.00015981154206711477,5.073110838201451e-5
1,94,1.0007089551610093,-0.00023611907815959232,0.00044095243712289505
1,95,1.0007079917042792,-0.00032085007103126986,0.0010855881928623192
1,96,1.0007644382366059,-0.0002872135656909794,0.0018370727363874763
1,97,1.0009485393045343,-0.00103878640708941,0.0034899612756308933
1,98,1.0002654846467587,-0.0010981132724485168,0.006638076333773978
1,99,1.0007230674352185,0.0005568100419673811,0.00765178538293138
1,100,1.0019018428852258,-0.007708149371240926,0.016414285315718268
1,101,0.9964951581684118,0.026516436078820094,0.01398553934945609
2,1,1.0008914981125139,1.8749492141021027e-5,-5.488352325132243e-6
2,2,1.0008925060748408,3.907260710889449e-5,-3.4718310210931604e-5
2,3,1.0008919449265494,4.69250163152994e-5,-8.152582658663322e-5
2,4,1.000891775359365,5.6467492560585655e-5,-0.00013912729042457752
2,5,1.0008915447439861,6.977326268237879e-5,-0.00020914578882098517
2,6,1.0008911934075087,8.631123276816657e-5,-0.0002947361770877263
2,7,1.000890765617538,0.00010684150968000618,-0.00039821591628312755
2,8,1.000890242496331,0.00013257983240429896,-0.0005223769091941178
2,9,1.0008896017370559,0.00016480115870826795,-0.0006699913735901223
2,10,1.0008888187606058,0.00020471417693360697,-0.0008437059525736081
2,11,1.0008878825683354,0.00025334643050804674,-0.0010451392425709029
2,12,1.0008868059009677,0.00031145878912417483,-0.0012745598174790942
2,13,1.000885644486123,0.0003794699487211804,-0.00152997399681852
2,14,1.000884511604288,0.0004574133257795249,-0.0018068931350665098
2,15,1.000883595311205,0.0005449303833183001,-0.002097721874672027
2,16,1.000883162033982,0.0006413059580441757,-0.0023919485292527264
2,17,1.0008835526755866,0.000745536775590796,-0.002676135787881042
2,18,1.0008851572861137,0.0008563975729930115,-0.0029346648421900547
2,19,1.0008883822513608,0.0009724800117473088,-0.003150208907538978
2,20,1.000893603829424,0.0010921928775216576,-0.0033046690655710895
2,21,1.000901125969596,0.0012137513588518765,-0.003379675205678298
2,22,1.000911135434505,0.0013351987761782381,-0.0033573573030296748
2,23,1.0009236677143987,0.001454516451799363,-0.0032207579039569864
2,24,1.0009385720100679,0.00156984626895605,-0.002954600381676207
2,25,1.000955485899551,0.0016798129506315695,-0.00254594219018159
2,26,1.000973809452098,0.0017838730966530146,-0.001985251499011266
2,27,1.0009926978107508,0.0018825917842078006,-0.001267369767786401
2,28,1.0010110715075773,0.001977748385508006,-0.00039261473543248775
2,29,1.0010276660629605,0.002072224795840158,0.000632550436830666
2,30,1.0010411082922446,0.0021696730082732267,0.0017951293771849067
2,31,1.001050029307099,0.0022740053806610387,0.003075916554768291
2,32,1.0010531892351417,0.0023887900050347903,0.004450322847900505
2,33,1.0010496124281247,0.0025166848334906987,0.005889865834354791
2,34,1.0010386909716484,0.0026590425021060047,0.00736393791985269
2,35,1.0010202545916,0.002815766326983974,0.008841716900775742
2,36,1.0009945749298972,0.002985408517138483,0.010293833963024461
2,37,1.0009623296904726,0.0031654473641443783,0.011693686793236315
2,38,1.0009245140628091,0.003352650793704237,0.013018300220188031
2,39,1.0008823453721625,0.0035434479717189153,0.01424871129789727
2,40,1.0008371485365952,0.0037342471971729563,0.01537004848895823
2,41,1.0007902699640574,0.003921675168706852,0.01637122221383798
2,42,1.000742991025871,0.004102725913612497,0.01724460100038821
2,43,1.0006964854408251,0.004274835778514769,0.017985370314406786
2,44,1.0006517732529359,0.004435891782187702,0.018591177891147625
2,45,1.0006097202747621,0.004584203835219597,0.01906140236809371
2,46,1.0005710192825124,0.0047184413921834145,0.01939701038329087
2,47,1.0005362167234786,0.004837569539161429,0.019599808749713732
2,48,1.0005057023605726,0.004940766110539776,0.019672654667661334
2,49,1.0004797509269276,0.005027364399407572,0.019618633548992858
2,50,1.0004585052694779,0.0050967761421092436,0.01944173405394819
2,51,1.0004420284007038,0.00514846280699539,0.01914579679005605
2,52,1.0004302696172347,0.005181871403208246,0.01873580102162512
2,53,1.0004231299979551,0.005196447066711405,0.018216335837123798
2,54,1.0004204026444488,0.005191579687792425,0.017593730268320906
2,55,1.0004218611241547,0.005166669979944127,0.016873674740503226
2,56,1.0004271636599587,0.0051210804705211855,0.0160645538212078
2,57,1.0004359800853568,0.005054269228513084,0.01517366656067731
2,58,1.0004478462534143,0.004965733400315561,0.014212294142406564
2,59,1.0004623513406152,0.004855222226149806,0.013189721440374481
2,60,1.0004789238569942,0.004722652090327079,0.012120802122179582
2,61,1.000497106821586,0.00456839698376513,0.011016679906897253
2,62,1.0005162516932096,0.0043931424255531345,0.009895918161256003
2,63,1.0005359112909529,0.00419822474598956,0.008770496337124302
2,64,1.0005554146686535,0.003985391482183817,0.007661956074650622
2,65,1.000574402482213,0.0037571244708775784,0.006580978008711474
2,66,1.0005922579967998,0.0035162883910038246,0.005550402885830345
2,67,1.0006087939217216,0.003266381216310263,0.004576617163565719
2,68,1.0006235255030054,0.003011090032947761,0.003681470406406451
2,69,1.0006364973400965,0.0027543992600995945,0.002864064082789095
2,70,1.0006474072294678,0.002500103570552831,0.002143124079169632
2,71,1.0006565291945648,0.002252000150754555,0.0015087191890322757
2,72,1.0006637221116885,0.0020133498189478377,0.000975346182272323
2,73,1.0006694671095313,0.001786752076467825,0.0005241699303062521
2,74,1.0006737406658437,0.0015738964216188973,0.00016619635817296404
2,75,1.0006770022996385,0.001376537007258121,-0.0001237039287753664
2,76,1.000679187950093,0.001196055294708547,-0.00033635941897176944
2,77,1.000681001759075,0.0010321383944658646,-0.0005017643573517417
2,78,1.000682504500437,0.0008823105390105038,-0.0006097369800540523
2,79,1.0006839388155269,0.0007445877999271161,-0.0006877643967634472
2,80,1.0006846700359617,0.000619833167573,-0.0007192953122602506
2,81,1.000684902420343,0.0005111970879178368,-0.0007336253925297865
2,82,1.0006845294275244,0.00042190843663563447,-0.0007208852296099393
2,83,1.0006842503527535,0.00035373079402787976,-0.0007234569625669365
2,84,1.0006837621847648,0.00030644429084677435,-0.0007391213028154348
2,85,1.0006833298806384,0.000279738721000669,-0.0008155732943740874
2,86,1.0006824318887655,0.00027179011600489406,-0.0009474604509928577
2,87,1.0006808924259194,0.00027815379391604267,-0.0011757498766784122
2,88,1.0006788310006252,0.00028861173895644956,-0.0014764529379028364
2,89,1.0006758846913946,0.0002888147405166318,-0.001861889274626372
2,90,1.0006732695905804,0.0002660349907004916,-0.0022765312558994666
2,91,1.0006741179346703,0.00018528097913469128,-0.002683694269928775
2,92,1.0006783135448232,1.3234369656046672e-5,-0.0029704320508252948
2,93,1.0007027780502147,-0.000341273432290275,-0.003037879687508599
2,94,1.0007110142431888,-0.0008044154749062149,-0.00267642639954351
2,95,1.00076630412231,-0.0011306075813823197,-0.0020529149597129427
2,96,1.0008294230530468,-0.0022427747796583664,-0.00034834939693903277
2,97,1.0007305899728582,-0.0037066969883278802,0.0020363113842333438
2,98,1.0014829401640584,-0.004459090370484347,0.0039614354454397755
2,99,1.0003869586569718,-0.010759783915065081,0.01614381654308535
2,100,0.9996070335487196,-0.012212391970364523,0.02180086971598703
2,101,1.0037547589788973,0.05153330221408181,0.0056248698751385166
3,1,1.0008915417135777,3.0511970240273913e-5,-5.40420748555102e-6
3,2,1.000893119101192,7.911942776875085e-5,-3.836319285560651e-5
3,3,1.0008926453206874,0.00010514588573479399,-0.00010004285789835617
3,4,1.0008921967975588,0.00012764641225073496,-0.00018434970594791869
3,5,1.0008918875167567,0.00015445111506538054,-0.000288054617795946
3,6,1.0008915230172397,0.00018538873398849111,-0.00041376205326906773
3,7,1.0008910418453045,0.0002195006101195301,-0.0005650997090500599
3,8,1.0008904547492474,0.00025628705436689814,-0.0007452382617145661
3,9,1.0008897299128843,0.0002943147021613066,-0.0009567755489163014
3,10,1.000888845175464,0.0003307024600263791,-0.0012013171531288778
3,11,1.00088779932791,0.00036103509088492513,-0.0014781357976624257
3,12,1.000886623143168,0.0003794089444337822,-0.001783618460525946
3,13,1.0008853955575912,0.0003786760316229504,-0.00211025345939462
3,14,1.000884256771122,0.0003508814776955699,-0.002446667210767875
3,15,1.0008834159285316,0.0002879024889099778,-0.0027775189509529185
3,16,1.000883147669078,0.0001822144014755399,-0.0030845243535278575
3,17,1.0008837756482771,2.7630873010232883e-5,-0.003347301720348835
3,18,1.0008856452995734,-0.00018015419931305832,-0.0035449530302169878
3,19,1.0008890896647384,-0.00044332681096826955,-0.003656995494134743
3,20,1.0008943972372057,-0.0007619893685771096,-0.003664463937850724
3,21,1.0009017844053159,-0.0011343450028449668,-0.0035501093233397773
3,22,1.0009113759953836,-0.001556856520086068,-0.003298751621420979
3,23,1.0009231869092636,-0.0020242504742074108,-0.0028971218144092973
3,24,1.000937100030403,-0.0025293379169799173,-0.0023343278971180506
3,25,1.0009528320438277,-0.003062755745716222,-0.0016022930519772808
3,26,1.0009698926366988,-0.003612821255271299,-0.00069694433795001
3,27,1.000987549176216,-0.004165695626033796,0.0003807986723931247
3,28,1.0010048151061197,-0.004705955216886563,0.0016237976992662176
3,29,1.001020475242011,-0.0052175555961167085,0.0030182482267782913
3,30,1.0010331571229725,-0.005685079019050271,0.004543579183778354
3,31,1.0010414523583295,-0.006095083106054343,0.006173501238525087
3,32,1.0010440697671488,-0.00643729863882552,0.007877465430859067
3,33,1.0010399942552155,-0.006705430630675836,0.009622917631532913
3,34,1.0010286096048224,-0.006897403461780147,0.011377321621882033
3,35,1.0010097686813255,-0.007015049656121166,0.01311024266988925
3,36,1.0009837910037702,-0.007063367627651119,0.014794600025496103
3,37,1.0009514092751912,-0.007049554101483883,0.01640765261126195
3,38,1.0009136680043815,-0.006982003373584154,0.017931105482438377
3,39,1.00087181522837,-0.006869429557532265,0.019351113060953253
3,40,1.0008271856225097,-0.006720184830221167,0.020657663048611004
3,41,1.0007811115590244,-0.006541805739503089,0.02184412966143373
3,42,1.0007348430609022,-0.00634075644798559,0.02290644699048055
3,43,1.0006895054835994,-0.006122344418376921,0.023842616037937997
3,44,1.000646063569726,-0.005890745382648001,0.02465196811744519
3,45,1.0006053178804541,-0.005649118618159971,0.025334797242121808
3,46,1.000567898425617,-0.005399751389755794,0.02589182780704215
3,47,1.0005342812886038,-0.005144242004991796,0.02632398588529065
3,48,1.0005047959765796,-0.004883662974802269,0.026632100306900608
3,49,1.0004796469853459,-0.00461874629858437,0.0268167490926611
3,50,1.0004589258293208,-0.004350021808637816,0.026878221663929634
3,51,1.0004426285802763,-0.004077984802762483,0.026816339039397175
3,52,1.0004306705644874,-0.0038031961594051787,0.026630758152328664
3,53,1.0004228951651106,-0.003526431326247511,0.02632062518097553
3,54,1.0004190939571553,-0.0032487350997588323,0.02588539500492288
3,55,1.000419003351045,-0.002971550536836178,0.02532410191912845
3,56,1.0004223354900446,-0.0026967129515775403,0.02463699356878246
3,57,1.000428758177118,-0.0024265466420590417,0.02382406013876817
3,58,1.0004379426517336,-0.0021637695233706193,0.02288794021118293
3,59,1.0004495198542334,-0.0019115351110004003,0.021831108399828596
3,60,1.000463150718352,-0.001673213573544975,0.02066069341079618
3,61,1.0004784503178705,-0.001452360482764863,0.019383374142051137
3,62,1.0004950852280883,-0.0012523583857602639,0.018012947921694594
3,63,1.0005126602508945,-0.0010763268084821576,0.016561570364219704
3,64,1.000530845763498,-0.0009266591510600604,0.0150511206486159
3,65,1.0005492317517788,-0.0008049536134325779,0.013499084781051789
3,66,1.0005674847350667,-0.0007115588590565461,0.011934978796153364
3,67,1.00058519148681,-0.0006456401730528682,0.010379144766318274
3,68,1.0006020265283322,-0.0006049022782558247,0.008865681154997453
3,69,1.0006176235568445,-0.0005859189817010338,0.007412917283953744
3,70,1.0006317226146275,-0.0005841662638067273,0.006054214763802212
3,71,1.000644101824954,-0.0005944569617083784,0.004799911828017991
3,72,1.0006546213368148,-0.0006112487378266997,0.0036770078331005915
3,73,1.0006632587312116,-0.0006294532034247972,0.002683271118982771
3,74,1.0006700832030146,-0.000644960979750845,0.001835572799437
3,75,1.0006753123202092,-0.0006541230957143003,0.0011180616077011922
3,76,1.0006790172210231,-0.0006532868457336541,0.0005385042279955363
3,77,1.0006814817162926,-0.0006409125636696019,7.002146341672397e-5
3,78,1.0006831035212091,-0.0006203419474081625,-0.0002873403473673481
3,79,1.00068438699792,-0.0005972542317450279,-0.0005654433545016348
3,80,1.0006851529486176,-0.0005722963524280232,-0.0007598098199893654
3,81,1.0006850532971816,-0.0005372323107965745,-0.0008985292033505489
3,82,1.000683844908471,-0.00047830529155145214,-0.0009826991102248673
3,83,1.0006819045556978,-0.00038340652722653026,-0.0010605880747573766
3,84,1.0006796037667642,-0.00024707226861753206,-0.0011564206410158001
3,85,1.0006772586320583,-7.073266020584561e-5,-0.0013325104042664505
3,86,1.0006747036102057,0.00013690491739137373,-0.0016100130311085983
3,87,1.0006719777316215,0.0003528836185058641,-0.0020293157154209485
3,88,1.0006677975736538,0.0005464548611726779,-0.002567530447009158
3,89,1.000664017129372,0.0006813596745105797,-0.0032172853593053583
3,90,1.0006601634174705,0.000708325849969085,-0.0038850051388902773
3,91,1.0006578164540614,0.0005904010277149495,-0.004511182779655338
3,92,1.0006615771365368,0.00022482519985276786,-0.004942083672093773
3,93,1.0006544950770289,-0.0003816631281878355,-0.005125259406557838
3,94,1.0007092311281043,-0.0011335432748182661,-0.005174531928408368
3,95,1.000714656223626,-0.002454563339743084,-0.004246960743536621
3,96,1.0005848561861124,-0.0035698577362760025,-0.003247373008077575
3,97,1.0010361301209003,-0.005195134811744178,-0.0029220936915829204
3,98,1.0006637273651635,-0.012305124694010546,0.0035715572141417594
3,99,0.9995073520035955,-0.0169498572891884,0.005939646808394111
3,100,1.000563845669541,-0.00275911350052342,-0.0006249454671571237
3,101,1.0004807276035856,0.055178555566074476,-0.0019296361230431024
4,1,1.0008911848860818,5.285062402320108e-5,-6.6808063662067345e-6
4,2,1.0008929780626532,0.00013601215646951215,-4.5709910896139725e-5
4,3,1.000892724719568,0.00019314393247525893,-0.0001199292803828507
4,4,1.0008922987990507,0.0002424184857783378,-0.00022507663369404095
4,5,1.0008918379382108,0.0002953956049735568,-0.0003562471525387223
4,6,1.0008914965467006,0.0003576579422102636,-0.0005116688685490309
4,7,1.0008911193117676,0.0004303217057139757,-0.0006936363170925633
4,8,1.000890642563467,0.0005135024701655241,-0.0009046572424241471
4,9,1.000890085612679,0.0006067685423454501,-0.0011447763174538522
4,10,1.0008894508860127,0.0007079439982862299,-0.0014117001041934283
4,11,1.000888764271097,0.0008128492329690251,-0.0016994766183655663
4,12,1.0008880854338607,0.0009155819947831782,-0.001998175984301838
4,13,1.0008875111416806,0.0010090807434790046,-0.0022933589179414977
4,14,1.0008871802911534,0.0010859641295177332,-0.002567023577917518
4,15,1.0008872679097947,0.0011394892794999326,-0.002798467527898683
4,16,1.0008879719781285,0.001164418836814203,-0.0029663552571683955
4,17,1.000889491320202,0.001157535829372323,-0.0030501056004684233
4,18,1.0008920033429973,0.0011176295113059164,-0.0030315952932662557
4,19,1.0008956449028947,0.0010449728733304077,-0.0028954348953066527
4,20,1.0009005057980047,0.0009405405553797093,-0.002629107255943384
4,21,1.0009066328670333,0.000805344777625399,-0.002221885434683914
4,22,1.0009140417280473,0.0006402512660011136,-0.001664302008117733
4,23,1.0009227193418293,0.00044645062749406765,-0.0009474613273014004
4,24,1.0009326045889306,0.00022649326831486067,-6.379393361980415e-5
4,25,1.0009435400822853,-1.4476575954724213e-5,0.0009919055981493065
4,26,1.0009552053220838,-0.0002677552646996066,0.0022202840326145915
4,27,1.0009670528952392,-0.0005207867478529819,0.003615765982629658
4,28,1.0009782666172733,-0.0007577377372917564,0.005164841873034324
4,29,1.0009877735496495,-0.0009609421200458226,0.006845964768337905
4,30,1.0009943189837556,-0.0011129660739507654,0.008630158457204041
4,31,1.000996614256497,-0.0011988551758783386,0.010483404033424949
4,32,1.0009935076565974,-0.0012080158526126086,0.012369160744906155
4,33,1.0009841564274662,-0.0011353270633180027,0.014251618054733963
4,34,1.000968132094822,-0.000981306406871953,0.016097884067599537
4,35,1.0009454737146062,-0.0007514524509854373,0.0178800477736439
4,36,1.0009166498913613,-0.00045502837215915295,0.019575709317656727
4,37,1.0008824948747819,-0.00010363577796699019,0.021168446172183022
4,38,1.0008440880586607,0.00029015859502391723,0.022647014364827113
4,39,1.0008026605191715,0.0007139462100679289,0.024004971407474394
4,40,1.0007594759014065,0.0011562924029849184,0.025239389871094635
4,41,1.0007157700629228,0.0016072269977718935,0.026350372487920784
4,42,1.0006726705424591,0.002058475291682705,0.027339806176592683
4,43,1.0006311832087804,0.0025034749792397218,0.028211103804021753
4,44,1.0005921485657372,0.0029372646927269936,0.02896816254174369
4,45,1.0005562626945803,0.0033562793743409187,0.029615390321302424
4,46,1.0005240545255791,0.0037581186784972766,0.03015684478228846
4,47,1.0004959233721116,0.004141292766833197,0.030596492371206232
4,48,1.0004721231443092,0.0045049933775699,0.03093744897517315
4,49,1.0004528037021023,0.004848864794980077,0.03118240279706828
4,50,1.0004379947299848,0.005172820567357312,0.031332887217530296
4,51,1.0004276442659468,0.005476852568519723,0.0313898157879012
4,52,1.0004216009886804,0.005760896400191881,0.031352755972105836
4,53,1.0004196475233305,0.006024665690096883,0.031220545089639656
4,54,1.0004214841515777,0.006267560569234877,0.030990594603944873
4,55,1.0004267567246998,0.006488513361847054,0.03065956357487895
4,56,1.000435047780405,0.006685946405431372,0.030222817631952767
4,57,1.0004458994034824,0.006857631063022769,0.029675112261916256
4,58,1.0004588195284714,0.007000726104339136,0.029010470038374075
4,59,1.0004732984058007,0.007111679176609349,0.028222731996037746
4,60,1.0004888374408003,0.0071864050167484515,0.027306296006139746
4,61,1.0005049527833372,0.007220285547527207,0.026256168155028764
4,62,1.0005212299151702,0.007208556072353655,0.0250701880707704
4,63,1.0005372995116428,0.007146461020074262,0.023747789701796456
4,64,1.0005529136115598,0.00702986984707946,0.022294467151254778
4,65,1.0005678720065312,0.006855580400258094,0.020717855726479422
4,66,1.0005821148831806,0.006622066698407239,0.019035224553088387
4,67,1.00059558137501,0.006329783704514643,0.017264936419414567
4,68,1.000608324450108,0.005981784306545755,0.01543776376880377
4,69,1.000620308471671,0.005583744628644041,0.01358173275813336
4,70,1.000631577772918,0.005144130135640269,0.011738096915310265
4,71,1.0006420173396333,0.0046736999482262665,0.009938454474667912
4,72,1.000651589269581,0.004185092521341135,0.00822646817668487
4,73,1.0006600905372585,0.0036917381003038537,0.006627745178211029
4,74,1.0006674769623136,0.0032068400612641143,0.005177839389903174
4,75,1.0006736387431723,0.0027424554367412282,0.003886910911421408
4,76,1.000678621763165,0.0023096979241827706,0.002775327649561673
4,77,1.0006822897311909,0.0019175611577850543,0.0018357229418557114
4,78,1.0006848116178018,0.0015693013762073762,0.0010712593558637237
4,79,1.0006865808036944,0.001260547101139713,0.0004558703758887115
4,80,1.000688077746965,0.0009869477745999904,-1.822973646890495e-5
4,81,1.0006890644891915,0.00075550410503119,-0.0003761804307977603
4,82,1.0006890622337197,0.0005882777613762727,-0.0006231903388569743
4,83,1.0006879478488333,0.000511988987448614,-0.0007980199983336141
4,84,1.0006862287190696,0.0005427196651588383,-0.0009379811557983964
4,85,1.0006846878820872,0.0006796749321725358,-0.0011132119997535653
4,86,1.0006839077390977,0.0008988808909750365,-0.0013671143342383642
4,87,1.0006829985668717,0.0011523600279913612,-0.001736718117544994
4,88,1.000682698144805,0.0013753952076787689,-0.0022034044716636287
4,89,1.000681132917085,0.0014905703138188694,-0.0027107939056643694
4,90,1.0006812114313801,0.001428577118247106,-0.0031769193197991683
4,91,1.0006808484098695,0.001088472919618247,-0.003458350390025402
4,92,1.0006723470974206,0.0005019232816287435,-0.0035237693299147834
4,93,1.000710393390996,-0.00030140906227186045,-0.003480562978221571
4,94,1.0006855402545696,-0.0017465372717243148,-0.002725542168006147
4,95,1.00064585798044,-0.0029845135018451412,-0.00230526473251819
4,96,1.0009680158618761,-0.00422483190554838,-0.001999190666629404
4,97,1.0005678834851635,-0.009550932523197808,0.002580029241258646
4,98,1.0000452421091308,-0.014148603079737527,0.0030914870484095563
4,99,1.0008761866478102,-0.010577110228343288,-0.002067832826499384
4,100,1.0012607505591287,-0.001521528248215153,-0.0024852213522521486
4,101,0.9997665820967307,0.05207393240039935,-0.0005522905139508525
5,1,1.0008909083810789,7.034782819504248e-5,-7.63571748223476e-6
5,2,1.000892892548559,0.00019370266755607197,-5.2647545804636485e-5
5,3,1.000892609057919,0.00028493940127437175,-0.000138032367296529
5,4,1.0008923070929756,0.00036211168372093325,-0.0002570822858995687
5,5,1.000891876845254,0.00043680702518189606,-0.000404566772240469
5,6,1.000891445506432,0.0005167666297094579,-0.0005765487143561111
5,7,1.0008910983300978,0.0006047887536010649,-0.0007707726103096354
5,8,1.0008906938905617,0.0006978872864051299,-0.0009867437727186152
5,9,1.0008901748524806,0.0007898758418590343,-0.0012211568387059933
5,10,1.000889560257495,0.0008719547120882192,-0.0014666644889316032
5,11,1.0008888546074024,0.0009323028250806679,-0.0017115268102757895
5,12,1.000888081103683,0.0009568538447249587,-0.0019403164831086333
5,13,1.0008872959364226,0.0009308241707680116,-0.00213414475562817
5,14,1.0008865941109002,0.0008404927684902909,-0.002272751891536779
5,15,1.0008861140398821,0.0006748932936400622,-0.002335984402027318
5,16,1.0008860337036163,0.00042697180291542734,-0.002306188871541377
5,17,1.0008865586017943,9.386900442798985e-5,-0.0021688868516783148
5,18,1.0008879111855544,-0.00032373822593485113,-0.00191330086614025
5,19,1.0008903256782369,-0.0008229211532228931,-0.001530759925999285
5,20,1.000894057338126,-0.0013997811487274864,-0.0010133524101338187
5,21,1.0008993945050952,-0.002050063477349746,-0.00035173716502521503
5,22,1.0009066559904298,-0.002768689637236704,0.0004651200953701051
5,23,1.0009161466750607,-0.00354829052045757,0.0014495629525397107
5,24,1.0009280612372156,-0.0043772992802092545,0.0026123242157264784
5,25,1.0009423548071292,-0.005238426032118891,0.003959527058585637
5,26,1.000958609215888,-0.00610821575499166,0.005488674922647054
5,27,1.000975947105439,-0.006958070576714147,0.0071865801763076045
5,28,1.0009930197208725,-0.00775669578323238,0.009028120075230435
5,29,1.0010081209251487,-0.008473542283379267,0.010978189507552253
5,30,1.0010193861529448,-0.009082446633590775,0.012994507113556786
5,31,1.0010250674527956,-0.009564597409016414,0.015032543846592904
5,32,1.0010237607652863,-0.009910156836571876,0.01704929785631575
5,33,1.0010145959191747,-0.010118352425822975,0.019007342182751345
5,34,1.000997280085912,-0.0101962504822294,0.020876284801357642
5,35,1.0009721007926202,-0.010156732497766078,0.022634147386215837
5,36,1.0009397973473901,-0.010016195729553328,0.024266303283387736
5,37,1.0009014720970848,-0.009792437644012301,0.025765151125069156
5,38,1.0008584110682295,-0.009502951885181165,0.02712799501467508