TITLE="CMs_NON_Orthogonal Re = 10000.0"
VARIABLES = X,Y,Rho,U,V
ZONE
I = 101	J = 101
F=POINT
1,1,1.0008897686527831,2.4306900609233216e-6,-2.9344311101613414e-6
1,2,1.0008908950235325,6.0849518382921046e-6,-1.87394092472306e-5
1,3,1.0008908090936632,6.333527524534799e-6,-3.86700718592838e-5
1,4,1.0008911431131389,7.373648396111249e-6,-6.140483783631874e-5
1,5,1.0008915356627965,8.612016153354582e-6,-8.867219126869407e-5
1,6,1.0008919601895898,9.801798269854566e-6,-0.00012144138074892575
1,7,1.0008924443137714,1.0823509933631446e-5,-0.0001604345099541324
1,8,1.000893010027392,1.1513917623982069e-5,-0.0002066823974594525
1,9,1.0008936535402861,1.1575104810053687e-5,-0.0002611795115877924
1,10,1.0008943617638253,1.0558455236963389e-5,-0.0003249920315192061
1,11,1.000895113906159,7.867821811241975e-6,-0.0003987941849314221
1,12,1.00089588912051,2.748300098948083e-6,-0.0004829206215617421
1,13,1.0008966741900915,-5.710219349836216e-6,-0.0005768353827923913
1,14,1.0008974790717025,-1.85422568208244e-5,-0.0006791101744559763
1,15,1.0008983556445346,-3.685231387577457e-5,-0.000786945355438873
1,16,1.0008994170861854,-6.172290947581506e-5,-0.0008962658501066466
1,17,1.0009008482714385,-9.411318766864284e-5,-0.0010015159591759697
1,18,1.000902901385621,-0.0001347492597086915,-0.0010960459864990865
1,19,1.00090586888725,-0.00018405065625112321,-0.0011722538638076457
1,20,1.0009100382513068,-0.0002420859640361566,-0.0012221674105793053
1,21,1.0009156340596639,-0.0003085790323183557,-0.0012376966941143363
1,22,1.0009227626072705,-0.0003829307052141515,-0.0012111243279962314
1,23,1.0009313671135618,-0.0004642555894952401,-0.0011352530512665447
1,24,1.0009412020208934,-0.0005514002287699715,-0.0010037678749085343
1,25,1.000951822811477,-0.0006429568045037123,-0.0008114154609848805
1,26,1.000962588990461,-0.0007372707494481077,-0.0005544726189115293
1,27,1.0009726758649335,-0.000832475999025917,-0.0002311117182169419
1,28,1.0009811037397756,-0.0009265616606467259,0.00015806374427776074
1,29,1.000986792639196,-0.0010174799600015346,0.0006097418399307624
1,30,1.0009886451362309,-0.001103272834991135,0.0011176872700319179
1,31,1.0009856457744504,-0.001182211653146684,0.0016729200634491976
1,32,1.000976964671082,-0.0012529259463246445,0.002264061528298162
1,33,1.0009620497493465,-0.0013144979121628084,0.0028780587051074444
1,34,1.0009406929727203,-0.0013664878989071315,0.003500963020383476
1,35,1.0009130574756795,-0.0014088973951342971,0.004118833868307214
1,36,1.0008796623133782,-0.0014420843497454413,0.004718453252280038
1,37,1.0008413295839746,-0.0014666622942264187,0.00528796198833048
1,38,1.000799106510668,-0.001483396987683478,0.005817207234555289
1,39,1.0007541763851477,-0.001493119121040562,0.00629797317092306
1,40,1.0007077724928461,-0.0014966535396713498,0.006723963169726914
1,41,1.0006611036279232,-0.0014947719774706936,0.007090728045012349
1,42,1.0006152974788538,-0.0014881619727076386,0.007395440772855046
1,43,1.0005713612859355,-0.0014774140736218918,0.007636693566494952
1,44,1.000530160310347,-0.0014630181553600236,0.007814223312763734
1,45,1.000492408040224,-0.0014453705734934234,0.00792870412590791
1,46,1.0004586683360788,-0.0014247838255811293,0.007981519117769436
1,47,1.0004293610226371,-0.0014015016819244872,0.00797460776658425
1,48,1.000404774533598,-0.0013757127050257711,0.007910322149730585
1,49,1.000385074990559,-0.001347566659820736,0.0077913392758405305
1,50,1.0003703209660482,-0.0013171870616260374,0.007620607425102304
1,51,1.0003604693381933,-0.001284686273487177,0.007401306049734119
1,52,1.0003553892282435,-0.0012501746720964284,0.007136876489641729
1,53,1.0003548621941984,-0.0012137741682991961,0.006830995281332769
1,54,1.0003585964954604,-0.0011756215164582008,0.006487684993617861
1,55,1.0003662217976246,-0.0011358816326255913,0.006111248209313493
1,56,1.0003773076606228,-0.0010947401594484031,0.005706465879441247
1,57,1.0003913541492029,-0.0010524209062741387,0.005278407504159282
1,58,1.0004078200514253,-0.0010091576504286965,0.004832754364315921
1,59,1.0004261106716477,-0.0009652274875711294,0.004375344189010056
1,60,1.0004456214107065,-0.0009208821659860415,0.003912729688675661
1,61,1.0004657224016906,-0.0008764258488961496,0.0034512124236530614
1,62,1.0004858206016933,-0.0008320689939196865,0.0029979124825501593
1,63,1.0005053372943458,-0.0007881082994918806,0.0025588564082695726
1,64,1.0005237874189001,-0.0007446373768126622,0.0021411573676049446
1,65,1.0005407421586578,-0.000701925094528909,0.0017493906488365981
1,66,1.0005559142686402,-0.0006598990303053953,0.001389992402869469
1,67,1.0005690990676732,-0.0006187931607716321,0.0010647355574941388
1,68,1.0005802600378815,-0.0005783917471887227,0.0007788306618328442
1,69,1.0005894356866158,-0.0005389210118971396,0.000530285688292971
1,70,1.0005967897529078,-0.0005001495575152261,0.0003229152587819758
1,71,1.0006025409341284,-0.00046223118878553285,0.0001509386863994687
1,72,1.0006070367277056,-0.00042504783406422845,1.6801675909446066e-5
1,73,1.0006105457318744,-0.0003889505683669444,-8.795674393381872e-5
1,74,1.0006132528818201,-0.0003539451103861357,-0.00016108669861134058
1,75,1.0006154219928904,-0.0003200651154093018,-0.00021249018746035523
1,76,1.000617498821725,-0.000287382145501165,-0.00024037656144853089
1,77,1.0006196435906134,-0.0002565993320561631,-0.00025481116554992167
1,78,1.0006216034910937,-0.00022824807361346104,-0.000251272603777664
1,79,1.0006231175983835,-0.0002024483690883887,-0.00023755647962628244
1,80,1.0006243579505258,-0.00017858586330380668,-0.00020840089170561204
1,81,1.000625679383086,-0.00015610521615009763,-0.0001742036493073652
1,82,1.000627340141696,-0.00013437785410519426,-0.00013204017352198315
1,83,1.0006293119840368,-0.00011312451482702496,-9.469779325061589e-5
1,84,1.000631476337916,-9.193735464458153e-5,-5.962452928446168e-5
1,85,1.0006337291139757,-7.105591808003847e-5,-4.050676271649645e-5
1,86,1.0006358573870104,-5.0309672473383655e-5,-3.4055826760417206e-5
1,87,1.0006379554642693,-3.122545976878427e-5,-5.380955876285615e-5
1,88,1.000639519446918,-1.4979405141679233e-5,-9.103613305133583e-5
1,89,1.0006405450633244,-3.5555404894039287e-6,-0.00015241336009034657
1,90,1.00064069495896,-1.5407281475370825e-6,-0.00021383976208304726
1,91,1.0006397354097838,-5.404581018492474e-6,-0.0002667338724715027
1,92,1.0006473757792957,-3.661819802923498e-5,-0.0002583586131201864
1,93,1.0006492152559525,-9.815348047603589e-5,-0.00011434024084884305
1,94,1.0006492006308065,-0.00018161039692011068,0.0002517477283483283
1,95,1.000647936070009,-0.0002736057887944385,0.0008918567320651317
1,96,1.000708316402555,-0.0002467064083482821,0.0016589657592851201
1,97,1.0008977148791798,-0.0010091839321819112,0.003343482849096085
1,98,1.000211454649351,-0.0010815259869719387,0.006538057773761557
1,99,1.0006743334668005,0.0005655800744599074,0.007638562010090065
1,100,1.0018532736329326,-0.007687160032542533,0.016407128505133088
1,101,0.9964356367155264,0.026529630070018607,0.014001366473202251
2,1,1.000888462357359,1.8747452632402386e-5,-6.02823411513212e-6
2,2,1.0008895644462303,4.008182551710972e-5,-3.760451066768891e-5
2,3,1.000888943449506,4.692615974068714e-5,-8.681455842750741e-5
2,4,1.0008888660304849,5.5682467024531616e-5,-0.0001464167284545781
2,5,1.0008887667300423,6.786065980411686e-5,-0.00021876846365496324
2,6,1.0008885592995638,8.206963348394528e-5,-0.0003070768919471733
2,7,1.000888308263621,9.861240124738838e-5,-0.00041332929803297106
2,8,1.0008880050401323,0.00011810210694308347,-0.0005400609270857855
2,9,1.0008876299007423,0.00014083199986917837,-0.0006898360990508012
2,10,1.0008871644674397,0.00016673130711092376,-0.0008649055871444485
2,11,1.0008866097976217,0.00019532622488788406,-0.0010662861038716687
2,12,1.0008859970180628,0.00022565802622238486,-0.0012933426059962162
2,13,1.0008854044377242,0.0002562223859730629,-0.001542816153796386
2,14,1.0008849754115505,0.0002850239769113935,-0.0018084502033597013
2,15,1.000884934853006,0.00030975398888219674,-0.0020803917535361077
2,16,1.000885591103024,0.0003280701385092206,-0.0023454943888902052
2,17,1.0008873209907951,0.0003379270349619838,-0.0025876491492386297
2,18,1.000890529629291,0.0003378602210913247,-0.0027889727835628997
2,19,1.0008955959017287,0.00032713242796297923,-0.002930792379737884
2,20,1.000902809632297,0.0003056948840583988,-0.002994959874281032
2,21,1.000912321047555,0.0002740071124515286,-0.0029645047795023687
2,22,1.000924106283636,0.0002328239458934028,-0.0028242690117052803
2,23,1.0009379559210638,0.00018308493205050839,-0.002560966600579025
2,24,1.0009534717528412,0.0001259851763700023,-0.002163541249190132
2,25,1.000970066627349,6.321077718278407e-5,-0.0016234673306448448
2,26,1.0009869565881793,-2.7864158328158625e-6,-0.0009356329072245872
2,27,1.0010031626702274,-6.863389614350674e-5,-9.917393310957171e-5
2,28,1.001017533363215,-0.00013011301544429038,0.000881511436952605
2,29,1.001028805324296,-0.00018246652879957991,0.0019962898618001838
2,30,1.0010356917587568,-0.00022087708002779385,0.0032291326718459573
2,31,1.001036998509743,-0.0002410240731619717,0.004558763469898517
2,32,1.001031743948963,-0.0002396106011137347,0.005959704387662003
2,33,1.0010192715481827,-0.00021474275355866956,0.00740392017787982
2,34,1.0009993216419448,-0.00016608313334512043,0.00886246980316863
2,35,1.0009720604196422,-9.476756038158571e-5,0.010307225796637263
2,36,1.000938051039484,-3.1382083929622466e-6,0.011712154508939228
2,37,1.0008981906183636,0.00010562567203436667,0.013054335708814488
2,38,1.000853613640405,0.0002278964879358676,0.014314430206011843
2,39,1.0008055961132873,0.0003599455808066146,0.015476894557441662
2,40,1.0007554567683692,0.0004982126752819425,0.01652979196175609
2,41,1.0007044843087436,0.0006394882711017159,0.017464502733158336
2,42,1.000653873743997,0.0007810132483788097,0.01827523613321214
2,43,1.000604694787786,0.0009205127949021465,0.01895856623533562
2,44,1.0005578651151392,0.0010561792839286748,0.019512929710175594
2,45,1.0005141515670173,0.001186624624309193,0.019938186503076778
2,46,1.0004741659820806,0.0013108108972523108,0.020235256850491545
2,47,1.0004383840992608,0.0014279765681176624,0.020405777524591332
2,48,1.000407148971386,0.0015375567294454644,0.020451940776663617
2,49,1.0003806962239925,0.0016391138926473176,0.02037623633419156
2,50,1.0003591550057833,0.0017322667525478102,0.020181519753325987
2,51,1.0003425743282592,0.0018166389522048132,0.019870787636993424
2,52,1.0003309160897385,0.0018918025574352789,0.01944750646628923
2,53,1.0003240821210237,0.001957251822554355,0.018915338576510666
2,54,1.0003218963063976,0.0020123641039711897,0.018278785918678146
2,55,1.0003241354315286,0.0020564070107705547,0.0175427440326277
2,56,1.000330498136817,0.00208852090046406,0.016713545284595288
2,57,1.0003406455462855,0.002107771779324029,0.015798150194120012
2,58,1.000354154509618,0.002113160280720004,0.014805705638130117
2,59,1.0003705770241822,0.0021037326458229456,0.013746079416921292
2,60,1.0003893744801955,0.0020786154833901172,0.012632085251069833
2,61,1.0004100079003877,0.0020371851274523438,0.011476936826347508
2,62,1.0004318486756318,0.0019791097590806544,0.010297355279190982
2,63,1.0004543129375663,0.0019045513507010819,0.009109400048540425
2,64,1.0004767418476206,0.0018141747642336857,0.007932804979184244
2,65,1.0004985899111638,0.0017093114607869629,0.006784596741851455
2,66,1.0005192647522925,0.0015918848129643777,0.005685231489673068
2,67,1.0005383679883604,0.0014644815070135762,0.004649499177240767
2,68,1.0005554822580809,0.0013301352093029576,0.003695253466157965
2,69,1.0005704543027598,0.001192204138419632,0.002831390248614751
2,70,1.0005831181873464,0.001054136238602652,0.0020699685492699326
2,71,1.0005935804924868,0.0009194169636285387,0.0014114186961265568
2,72,1.0006019194198428,0.0007910188694476907,0.0008602854395166136
2,73,1.000608513300298,0.0006709731180736091,0.00040821003639488683
2,74,1.0006135557799758,0.0005607858140227567,5.355133054432577e-5
2,75,1.0006173357343808,0.0004623223440841834,-0.00021801792896422614
2,76,1.0006201295244743,0.000376570010841401,-0.0004127008237490732
2,77,1.000622603028826,0.0003017386596299403,-0.0005492176359820527
2,78,1.0006249290229956,0.00023440949495057977,-0.0006323729350488643
2,79,1.0006269208351337,0.0001733336349173305,-0.0006752836061396126
2,80,1.0006281251353346,0.00012096663768326647,-0.0006779562040309908
2,81,1.00062870791296,8.121119082872987e-5,-0.0006576926674478342
2,82,1.0006288984780725,5.708998526658534e-5,-0.0006247258866347309
2,83,1.0006290710948547,5.004456714600713e-5,-0.0006081202000541119
2,84,1.0006289577600596,6.01022903094521e-5,-0.0006243807433260841
2,85,1.0006284323639307,8.727991586403632e-5,-0.0007049144421287335
2,86,1.000627127142878,0.0001296923427505875,-0.0008634086126839413
2,87,1.000624659434451,0.00018296276585213703,-0.0011241787824030846
2,88,1.0006214389734742,0.0002365322160140961,-0.0014846862013761003
2,89,1.0006168235864508,0.0002740106009119636,-0.0019392191502291013
2,90,1.000612475295201,0.00027800076208285037,-0.0024481889588922772
2,91,1.0006111312333694,0.0002095238348384206,-0.0029433728735696264
2,92,1.0006141028695488,3.294231358880822e-5,-0.0033171804167096593
2,93,1.0006382863902112,-0.00034247404810105965,-0.0034328543394456165
2,94,1.000648294455176,-0.0008340484038228303,-0.0030957942706393666
2,95,1.0007080736097913,-0.0011965731297385442,-0.0024497155309871595
2,96,1.000775537973381,-0.0023410875718476508,-0.0006912509478173267
2,97,1.000681043095886,-0.003835371811463514,0.0017751578946301363
2,98,1.0014389146553742,-0.0046287714986917,0.003812244777161012
2,99,1.0003426469138827,-0.010888366240893534,0.016109366168266675
2,100,0.9995457284039884,-0.012241215988746796,0.021784924785074163
2,101,1.0036939765747266,0.05153370860709278,0.005626520414722057
3,1,1.0008885140045294,3.5074397274541365e-5,-5.799870571965276e-6
3,2,1.000890213565512,8.600253902288803e-5,-4.064031582860353e-5
3,3,1.0008896764460444,0.0001112517335550563,-0.00010415427830488723
3,4,1.0008893019450547,0.0001346028370899594,-0.00018985253520539743
3,5,1.0008891346333868,0.0001637796762921063,-0.00029509003247175014
3,6,1.0008889174086315,0.00019756930866686003,-0.0004226520393950826
3,7,1.0008886050303727,0.00023527879922043303,-0.0005756758551405412
3,8,1.0008882359487792,0.0002772981509778604,-0.0007566787313279351
3,9,1.0008877852067093,0.0003229462525911746,-0.0009676844134278777
3,10,1.0008872393630726,0.0003700343017919653,-0.0012095353037606979
3,11,1.000886616866812,0.00041494222418655025,-0.0014804285880786429
3,12,1.0008859761937565,0.0004525750144870649,-0.0017752917795549328
3,13,1.0008854280465835,0.00047647454258803446,-0.002084735049804001
3,14,1.0008851464499826,0.0004792701941459349,-0.002395038389010541
3,15,1.000885373129053,0.0004534852006467539,-0.0026881947181689944
3,16,1.0008864062566707,0.0003925401792218248,-0.0029432760088628647
3,17,1.0008885706665789,0.00029169700824203124,-0.003137842621904539
3,18,1.000892173939014,0.00014865076547989468,-0.0032500911673189275
3,19,1.000897457241486,-3.642998242099351e-5,-0.0032601926730810374
3,20,1.0009045567863184,-0.00026138813352375627,-0.0031514178209279594
3,21,1.0009134849491697,-0.0005228225194601724,-0.002909973857389256
3,22,1.0009241333780106,-0.0008166982975003568,-0.0025247364904662545
3,23,1.000936283583131,-0.0011385069562185426,-0.001986507140012511
3,24,1.0009496065574695,-0.0014829063065204904,-0.0012881592032705474
3,25,1.000963639057012,-0.001843075525472956,-0.0004250929423350253
3,26,1.0009777458036153,-0.0022101926059020947,0.0006033635591158778
3,27,1.000991093300461,-0.002573383654315788,0.0017927902162077343
3,28,1.0010026541604253,-0.0029202559270496936,0.0031324728222014786
3,29,1.0010112552577901,-0.00323791492091677,0.004605235596853678
3,30,1.0010156677967494,-0.003514248470945436,0.00618778823113395
3,31,1.0010147379697942,-0.003739212957386553,0.007852247642178376
3,32,1.0010075253936526,-0.003905841534096544,0.009567903658049335
3,33,1.000993427452297,-0.004010771827632487,0.011303524498099526
3,34,1.0009722499709512,-0.004054224959174814,0.01302915276356481
3,35,1.0009442278268497,-0.0040395206461661505,0.014717796679057031
3,36,1.0009099811483504,-0.003972295685132095,0.01634622446137056
3,37,1.000870442819145,-0.003859621519047461,0.01789555226965765
3,38,1.0008267532446768,-0.0037091733946396743,0.019351042564689294
3,39,1.0007801666863627,-0.0035285539225645294,0.02070193182817214
3,40,1.0007319531717203,-0.0033248051468820505,0.021940722980049236
3,41,1.0006833350542144,-0.003104110930773118,0.023062746126899545
3,42,1.0006354263897133,-0.0028716549326742876,0.024065359607585823
3,43,1.0005892107099679,-0.002631603045626303,0.02494754805114695
3,44,1.000545515273688,-0.002387164939547511,0.025709234430399377
3,45,1.0005050185290598,-0.002140711505764808,0.026351025757571308
3,46,1.0004682446249564,-0.0018939134235897912,0.026873689659540977
3,47,1.0004355850236126,-0.001647895899033439,0.027278048811942318
3,48,1.0004073004160619,-0.0014033846136040603,0.02756461343200498
3,49,1.000383545480967,-0.0011608543508593715,0.027733586714610257
3,50,1.0003643713203318,-0.0009206571231856061,0.02778464151910977
3,51,1.0003497479014876,-0.0006831544541533872,0.027716996278570376
3,52,1.0003395653657317,-0.00044882345598502166,0.027529352747183048
3,53,1.0003336524323532,-0.0002183737129171887,0.027220008563056973
3,54,1.0003317782246355,7.171262425342333e-6,0.02678701778337569
3,55,1.0003336665086136,0.00022637661231839846,0.02622830341128182
3,56,1.0003390011302347,0.0004373535606802309,0.02554215364190733
3,57,1.000347435594414,0.000637701027702489,0.024727265020233397
3,58,1.0003586049295985,0.000824534721903285,0.023783730870082318
3,59,1.0003721280636257,0.000994505112831102,0.02271285629675973
3,60,1.000387627147849,0.0011439447626754647,0.021518808516834305
3,61,1.0004047174311717,0.0012690031900161828,0.020207873280557464
3,62,1.0004230332629567,0.0013659456786313446,0.01879089964330295
3,63,1.0004422001605513,0.0014314120373001638,0.017281421302244054
3,64,1.0004618667211091,0.0014628381741261375,0.01569896165383145
3,65,1.0004816598202741,0.0014587519417967117,0.014065222233327727
3,66,1.0005012280850771,0.0014191857736171832,0.012408300301605975
3,67,1.0005201918048485,0.0013458439082587577,0.010756156508168751
3,68,1.0005381980415355,0.0012422660997180542,0.009142002968815779
3,69,1.0005548924348706,0.001113622376229816,0.007594666483377569
3,70,1.0005699889393633,0.0009665240872014995,0.0061457200387339825
3,71,1.0005832513205042,0.0008085842898215166,0.0048172696275546574
3,72,1.0005945222995405,0.0006477309894222649,0.003631767309237337
3,73,1.0006037790749405,0.0004910448834350573,0.0025979715583594456
3,74,1.0006111590386249,0.0003444299374650453,0.0017240256199363385
3,75,1.0006168312552641,0.00021364516534537104,0.0010037301774744579
3,76,1.0006208859190326,0.0001039072320530998,0.0004323672170068056
3,77,1.000623690323588,1.59041996457309e-5,-9.63030946315628e-6
3,78,1.0006258592834092,-5.592784136938851e-5,-0.00033768905001483744
3,79,1.0006277099572236,-0.00011713405448497367,-0.0005739197717992236
3,80,1.0006288580048908,-0.0001649110893123077,-0.0007272877070513713
3,81,1.0006288583388954,-0.00018779672008345348,-0.0008175175810136135
3,82,1.000627784374237,-0.00017224558629888863,-0.0008661239243884369
3,83,1.000626118401584,-0.00010916997797167898,-0.0009170745020843806
3,84,1.0006242111405614,3.69848295787589e-6,-0.0010133115711938256
3,85,1.0006220202374565,0.00016333478712335177,-0.0012055601434636854
3,86,1.0006192180979614,0.0003612880051166971,-0.0015275421256160941
3,87,1.0006156961779131,0.0005770912817899952,-0.002004775589956628
3,88,1.0006104496902206,0.0007808993148423191,-0.0026276358517096656
3,89,1.0006053403112443,0.0009295840668288297,-0.003370889447124253
3,90,1.0005999850183236,0.0009602759808087371,-0.00414333900440108
3,91,1.0005964098645412,0.0008213271015962633,-0.00485199267332643
3,92,1.0005989998806026,0.0004053757550359945,-0.00533229530357445
3,93,1.0005920215576591,-0.00026964639293210576,-0.005512062575693378
3,94,1.0006482301928792,-0.001096347031515456,-0.005517820574170269
3,95,1.0006559943918258,-0.002485353269747979,-0.004514654812561617
3,96,1.0005292703975872,-0.003657858011309792,-0.003446758033075852
3,97,1.0009812428094262,-0.005350483396214007,-0.003024727112913795
3,98,1.0006068662469745,-0.012488531240877501,0.003519276615152946
3,99,0.9994429748592,-0.01705607822231558,0.005888146755842165
3,100,1.000503272604524,-0.00277965638673354,-0.0006544651955550432
3,101,1.0004268277026183,0.055187681214435146,-0.0019299193429341355
4,1,1.00088807845134,5.52681566285068e-5,-7.024186251362786e-6
4,2,1.000889983794513,0.000141269373473956,-4.7608792264318944e-5
4,3,1.0008896919198216,0.00019619455291079615,-0.00012300511693533577
4,4,1.0008893379253456,0.00024432598426001506,-0.0002287566636246688
4,5,1.000889009098007,0.0002967849310336007,-0.00036035847833194244
4,6,1.0008888256468529,0.0003568231040277136,-0.0005159192182188306
4,7,1.0008886201383767,0.00042432498551605755,-0.0006970678473349484
4,8,1.0008883512412334,0.0004988492597886082,-0.0009052605890554523
4,9,1.0008880547126826,0.000578891719692569,-0.001139382106404275
4,10,1.0008877354909929,0.0006605000042714458,-0.001395896733798353
4,11,1.0008874276044204,0.0007373396461334723,-0.001667358533393802
4,12,1.0008872056438398,0.0008010686164666184,-0.0019420572069296792
4,13,1.000887182640598,0.0008419125878097569,-0.0022035666396858864
4,14,1.0008875134473858,0.0008497817535331551,-0.002431864726158583
4,15,1.0008883892803255,0.0008157992730177291,-0.00260450484112642
4,16,1.0008900226037405,0.0007338150171250905,-0.0026991446327289626
4,17,1.0008926186789087,0.0006013703774379757,-0.002695375030033511
4,18,1.0008963435557992,0.0004197160642817921,-0.0025766279053029105
4,19,1.0009012980498597,0.0001928405286137097,-0.0023302039656393028
4,20,1.000907512300914,-7.407592860087417e-5,-0.001946762059454546
4,21,1.0009149608257353,-0.0003760495673509463,-0.0014184249060408987
4,22,1.000923584580105,-0.0007088204132995415,-0.0007377292131449202
4,23,1.0009332913379199,-0.0010682354623632495,0.00010302057777001111
4,24,1.000943914418651,-0.0014487968441480896,0.0011103574003018225
4,25,1.000955139006726,-0.0018421308774946494,0.0022877778864131906
4,26,1.0009664249736858,-0.002236136628402614,0.003632927934016602
4,27,1.0009769641868105,-0.002615221314995945,0.005135912192833505
4,28,1.0009856853928134,-0.0029615882557642663,0.006778125981577769
4,29,1.0009913322421036,-0.0032572667129693537,0.008533134283070037
4,30,1.000992596318454,-0.0034863840536608166,0.010368281009365746
4,31,1.0009882975768187,-0.0036371412677366904,0.01224782021055615
4,32,1.0009775422054221,-0.0037030408044053447,0.014135649695558035
4,33,1.0009598499560755,-0.0036831897470703456,0.01599832854960349
4,34,1.0009351920712375,-0.003581749416083106,0.01780667079131508
4,35,1.0009039855281345,-0.0034068128840347455,0.019537146109208276
4,36,1.0008670074341182,-0.0031690225379701334,0.0211717857279332
4,37,1.0008253125280393,-0.0028802236505472245,0.0226982283733908
4,38,1.0007801068969866,-0.002552324122458478,0.024108657682561464
4,39,1.0007326698865524,-0.0021964590284998466,0.025399345023023195
4,40,1.0006842491395798,-0.0018224514968056993,0.02656937090778604
4,41,1.0006360248415145,-0.0014385448394919564,0.02762022536068469
4,42,1.0005890428580062,-0.0010513316171461436,0.028554671564205127
4,43,1.0005442214714348,-0.0006658319633410287,0.029376596008836815
4,44,1.0005023133169526,-0.0002856526598585987,0.030090087029408435
4,45,1.000463939335868,8.680157433587256e-5,0.03069952960480402
4,46,1.00042956411508,0.0004501085479364203,0.031208850104759992
4,47,1.0003995417766178,0.0008036056801958301,0.03162178639182791
4,48,1.000374093332452,0.0011471884887564773,0.03194122487422345
4,49,1.0003533546731624,0.0014811187491687308,0.0321695763826685
4,50,1.0003373504573305,0.0018058587662671919,0.03230814592927684
4,51,1.0003260395467695,0.0021219094565747337,0.03235756626332371
4,52,1.0003192845410178,0.0024296703166897474,0.03231716904863739
4,53,1.0003168935459594,0.0027292901851224305,0.032185455579502344
4,54,1.000318587614892,0.003020538010448962,0.03195947801703265
4,55,1.000324040067305,0.003302651912015937,0.03163535941323674
4,56,1.0003328464857089,0.0035742181756325325,0.031207753450148687
4,57,1.0003445643554236,0.0038330236338348657,0.030670463149865573
4,58,1.0003586919810197,0.00407596972095047,0.030016131940419296
4,59,1.000374711397478,0.00429897034177057,0.02923703516745465
4,60,1.0003920822155372,0.004496972377070501,0.028325244951431818
4,61,1.0004102873557073,0.0046639883454242985,0.027273628027561222
4,62,1.000428843034303,0.0047933351087157995,0.0260767565472705
4,63,1.000447337690541,0.004877914186781298,0.02473194827781208
4,64,1.0004654485926017,0.004910761561489274,0.023241069057436576
4,65,1.0004829535064534,0.004885621934605557,0.021611033118734982
4,66,1.0004997383082856,0.004797767317896313,0.01985631298495408
4,67,1.0005157574695227,0.004644702708711262,0.017997812615966505
4,68,1.0005310292983365,0.004426946446490378,0.016065577864607803
4,69,1.000545554604178,0.0041484544823855544,0.014094764973977105
4,70,1.0005593313441543,0.003816874399903668,0.012128077519438783
4,71,1.0005722576013378,0.003443248935572982,0.010208349802961451
4,72,1.0005842013812463,0.003041413627591842,0.008381132747771544
4,73,1.0005949431107242,0.002626649891466415,0.006684667882610847
4,74,1.0006043591073677,0.0022142717627300934,0.005153391025176517
4,75,1.000612351291613,0.0018189056086473025,0.003808144134573426
4,76,1.0006188388029211,0.0014545483226232046,0.002663757133497181
4,77,1.0006236668800297,0.0011316323092674105,0.001719827439760963
4,78,1.0006271375912033,0.0008516290493514372,0.0009668187414965122
4,79,1.0006298725369087,0.0006080373523903307,0.0003816231992731387
4,80,1.000632181753176,0.0003991832505405915,-5.493854678689285e-5
4,81,1.0006335523579213,0.00023945801606612324,-0.00036166142727001607
4,82,1.0006335065156104,0.00015655569598388555,-0.0005597928427429748
4,83,1.0006323183089316,0.00017606489827207985,-0.0006928017901810276
4,84,1.0006307375706431,0.0003074544996704785,-0.0008201347421803918
4,85,1.0006294649786243,0.0005426752404478623,-0.0010102432198205707
4,86,1.000628666305576,0.000853560197558345,-0.0013134336453423992
4,87,1.0006273375426844,0.001192439399090088,-0.0017515985437802236
4,88,1.0006261732021648,0.0014927095573386644,-0.002304719795683318
4,89,1.0006234450389406,0.0016647627085033235,-0.002896493568546347
4,90,1.000622154773098,0.0016181860477291008,-0.0034344267502482715
4,91,1.000620011842336,0.0012371664719769589,-0.003746248762641145
4,92,1.0006105521965107,0.0005612115716518855,-0.0037976770827613934
4,93,1.0006477410107348,-0.0003511259950556509,-0.003686719839336767
4,94,1.0006227439859998,-0.0018881743018354415,-0.002844986431048993
4,95,1.0005853564670564,-0.0031796709732367103,-0.0023511093717499113
4,96,1.0009073143356146,-0.004466508500106748,-0.001987696704178397
4,97,1.0005056564432109,-0.009809761476450116,0.0025888887195689987
4,98,0.9999845969533527,-0.014364418761269777,0.0030519915473070946
4,99,1.0008171744475145,-0.010748160373339354,-0.0020978228646274786
4,100,1.001203699421964,-0.0015974158115011944,-0.002493148471068246
4,101,0.9997075588467317,0.052065672016128085,-0.0005551461669690095
5,1,1.0008876721859492,7.701521803855688e-5,-7.998736636539514e-6
5,2,1.0008897587369554,0.00020392313122205366,-5.460959875788393e-5
5,3,1.000889429650519,0.00029283852920458,-0.00014107422157573583
5,4,1.0008892137156065,0.0003700973525717241,-0.00026026755441416655
5,5,1.0008889195375328,0.00044688579109045833,-0.00040729667806094504
5,6,1.0008886529882024,0.0005285420348319884,-0.0005778453427414728
5,7,1.0008885087203363,0.0006171581617390346,-0.0007686009961798616
5,8,1.0008883547448515,0.0007102751803731095,-0.0009777300824494596
5,9,1.0008881585822957,0.0008023430507157299,-0.00120035455554659
5,10,1.0008879631522778,0.000884926223453331,-0.0014275063978356724
5,11,1.0008877905368043,0.0009464772712789349,-0.0016458066159712006
5,12,1.0008876846965518,0.0009732668035611473,-0.0018382290327025493
5,13,1.0008877209222424,0.0009509437699356994,-0.001984477150422496
5,14,1.0008880035367829,0.0008665244954302239,-0.0020634388093113513
5,15,1.0008886658273095,0.000710516513950318,-0.002054962906982947
5,16,1.0008898615426487,0.0004784320416815293,-0.0019425026718779882
5,17,1.0008917463471214,0.00017100850285953906,-0.0017136416618638397
5,18,1.0008944626912606,-0.00020706517111630026,-0.0013600908496970159
5,19,1.000898138709034,-0.0006494168729616814,-0.000875126787032684
5,20,1.000902910130567,-0.0011501635235317,-0.0002514166643217009
5,21,1.0009089436729721,-0.0017048255605512288,0.0005214640631505145
5,22,1.000916426857115,-0.002309377593558335,0.0014565297712859028
5,23,1.0009254963724192,-0.0029578161754262988,0.0025675246742683493
5,24,1.000936112218165,-0.0036394183520724677,0.003864307397711438
5,25,1.000947930678489,-0.0043370242226925156,0.005348932654517098
5,26,1.0009602124271115,-0.005027121644273371,0.007011771091436098
5,27,1.0009718167681596,-0.005681800810417464,0.008830785913709468
5,28,1.0009812770111917,-0.006272052526751424,0.01077216331661181
5,29,1.0009869876167825,-0.006771571912310848,0.012794210757400188
5,30,1.0009874176509292,-0.007160084851341835,0.01485132404110104
5,31,1.0009813462101544,-0.007425462314034334,0.016899260146205766
5,32,1.000967995228523,-0.007564283874854034,0.018898272757787642
5,33,1.000947122212018,-0.0075810311930133234,0.02081617570292011
5,34,1.0009189713928768,-0.007486338315396184,0.02262857873559336
5,35,1.0008842314678226,-0.007294869970883532,0.02431940598186691
5,36,1.0008438831434745,-0.007023244956816981,0.025879140476937533
5,37,1.0007991292546907,-0.006688322498828104,0.027304300327131187