TITLE="CMs_NON_Orthogonal Re = 10000.0"
VARIABLES = X,Y,Rho,U,V
ZONE
I = 101	J = 101
F=POINT
1,1,1.0009067687046154,2.083831876802938e-6,-2.627971717154374e-6
1,2,1.0009077876987653,5.737576727300765e-6,-1.708104077484404e-5
1,3,1.000907729768937,6.491259726585347e-6,-3.6932340489904166e-5
1,4,1.0009078595797831,7.594761206528557e-6,-6.032634152656523e-5
1,5,1.0009079571889208,8.915298168362657e-6,-8.848155776770337e-5
1,6,1.000908013372709,1.0289257298292497e-5,-0.00012263878417873776
1,7,1.0009080457338497,1.1537911895159384e-5,-0.0001638197405460117
1,8,1.0009080616932469,1.246296686253256e-5,-0.00021324711042300327
1,9,1.0009080506106007,1.2758180030535016e-5,-0.0002721168869812389
1,10,1.0009079921669672,1.1964533692254113e-5,-0.0003417515480052673
1,11,1.0009078572149774,9.462789436969176e-6,-0.0004231381180243981
1,12,1.0009076214031016,4.475153470746851e-6,-0.0005169727883881138
1,13,1.0009072771855687,-3.9238587460282146e-6,-0.0006231804184803636
1,14,1.000906848822233,-1.6784808732005613e-5,-0.0007409250254205385
1,15,1.0009064082846932,-3.525057310540374e-5,-0.0008681463157188048
1,16,1.0009060925630728,-6.0492714361863327e-5,-0.0010015803910637154
1,17,1.000906115410559,-9.363852245212845e-5,-0.0011364195866482372
1,18,1.0009067706994363,-0.0001356779510567454,-0.0012664613847697085
1,19,1.0009084205783612,-0.00018738116623770107,-0.0013839936699422684
1,20,1.0009114690875331,-0.0002492120578010326,-0.001480123971226859
1,21,1.00091631790699,-0.0003212640817113866,-0.0015449110928686671
1,22,1.0009233089511493,-0.00040320137393296473,-0.0015678818256529426
1,23,1.0009326551190896,-0.0004942278254208509,-0.0015384122833180564
1,24,1.0009443690005562,-0.0005930708009094736,-0.0014464466045681747
1,25,1.0009581960838836,-0.0006980011817670949,-0.0012831200448057331
1,26,1.0009735657789938,-0.0008068826280744811,-0.0010416288745931244
1,27,1.0009895705931604,-0.0009172669933349802,-0.0007179291810595172
1,28,1.0010049902585798,-0.0010265228306210637,-0.00031146828958032697
1,29,1.0010183686410723,-0.0011319950698363828,0.0001744439195026653
1,30,1.0010281404602066,-0.0012311735921133494,0.0007324493364173298
1,31,1.00103278827053,-0.0013218740446748884,0.0013514244884403144
1,32,1.0010310077763194,-0.0014024110382795376,0.00201704085395026
1,33,1.0010218554066903,-0.001471721088270294,0.002712779638272022
1,34,1.001004854419656,-0.0015293827902851883,0.0034210479910689786
1,35,1.0009800407915268,-0.0015755460447220366,0.004124378692719408
1,36,1.0009479448806213,-0.0016108035139002824,0.004806388125347258
1,37,1.0009095173407043,-0.0016360473523501819,0.0054525683408159185
1,38,1.000866018701289,-0.0016523309814967682,0.006050721206719938
1,39,1.0008188940786182,-0.0016607555992956373,0.006591197564940768
1,40,1.0007696535942223,-0.0016623827139530339,0.007066841836907557
1,41,1.0007197711822957,-0.001658178089720253,0.007472841382292058
1,42,1.0006706097091655,-0.0016489788045805746,0.007806412123657693
1,43,1.0006233714202202,-0.0016354828455632951,0.008066499207822101
1,44,1.0005790728041755,-0.0016182510093601754,0.00825341854127076
1,45,1.0005385358266696,-0.0015977205401460882,0.008368574853370614
1,46,1.0005023940110276,-0.0015742220096663373,0.00841417761096524
1,47,1.0004711032556444,-0.0015480007576999274,0.00839304539111979
1,48,1.0004449601524683,-0.0015192365050489592,0.008308434337742629
1,49,1.0004241162406662,-0.001488064301550115,0.008163933164304676
1,50,1.000408597559399,-0.0014545913300520238,0.007963400729647536
1,51,1.0003983142255488,-0.0014189145752025846,0.007710923777286576
1,52,1.0003930779567018,-0.0013811324764338528,0.007410847465491186
1,53,1.0003926047378637,-0.0013413593057960342,0.007067750846856546
1,54,1.0003965322316475,-0.0012997292571290144,0.006686557278634256
1,55,1.0004044164396098,-0.0012564093515991127,0.006272464094767543
1,56,1.000415753891753,-0.0012115907923838948,0.005831135069678764
1,57,1.000429974251799,-0.001165505801902851,0.005368487886045985
1,58,1.0004464734157483,-0.001118395391724961,0.0048910090725394735
1,59,1.0004646031748456,-0.001070544688379558,0.004405242474013029
1,60,1.0004837205944381,-0.0010222054603139495,0.003918358709044694
1,61,1.0005031731866054,-0.000973684187116965,0.0034370756915983996
1,62,1.0005223662772773,-0.0009251781691416466,0.002968814720149085
1,63,1.0005407377426356,-0.0008769823164861616,0.002519573145744763
1,64,1.0005578401210022,-0.0008291674938800642,0.002096368185653827
1,65,1.0005732955526865,-0.0007820068279594342,0.001703220976542669
1,66,1.0005868798711641,-0.0007354122918542172,0.0013461153293110604
1,67,1.000598453099866,-0.0006896381488465614,0.00102583224358382
1,68,1.0006080413586758,-0.0006444825643853451,0.000746948877163737
1,69,1.0006157306340766,-0.0006002165260358634,0.0005063175293140831
1,70,1.000621716721102,-0.0005566496670685619,0.0003071998229698285
1,71,1.0006262347203394,-0.0005139946369837589,0.0001428042861650262
1,72,1.0006296260353602,-0.00047220000901798827,1.5333208671137306e-5
1,73,1.0006321248002552,-0.00043167434520780337,-8.430747735490237e-5
1,74,1.0006338772089085,-0.00039244964912174313,-0.0001537231138678386
1,75,1.000635115110256,-0.00035456910854084623,-0.00020317601776207985
1,76,1.000636248376207,-0.00031808951101650247,-0.00023055592211860355
1,77,1.0006374004957341,-0.0002836815382686911,-0.0002462476299291151
1,78,1.0006382973507333,-0.0002518397269016668,-0.00024546904292393465
1,79,1.0006386752374294,-0.00022266434863467565,-0.00023647647414961674
1,80,1.0006387216681167,-0.0001955260433548982,-0.00021385935572457116
1,81,1.0006388303122402,-0.00016985240251843938,-0.00018856463443340805
1,82,1.0006393197694767,-0.00014500192301646989,-0.00015754412609319434
1,83,1.0006402139661166,-0.000120739772169884,-0.00013405499411523044
1,84,1.0006414268299377,-9.675076610002425e-5,-0.00011509336422269914
1,85,1.0006428510780465,-7.346958370410485e-5,-0.0001142923719050687
1,86,1.0006442056450024,-5.109317364425181e-5,-0.0001270218536991028
1,87,1.0006455362262567,-3.158534124274384e-5,-0.00016513521596962137
1,88,1.0006463385461926,-1.6378382212010632e-5,-0.00021660021250427381
1,89,1.0006467936949142,-7.318806365832061e-6,-0.000284866918126303
1,90,1.0006469152670945,-8.528511928438776e-6,-0.000342772783057441
1,91,1.0006467755897963,-1.5312958394651118e-5,-0.0003810911792434174
1,92,1.000656416555831,-4.8096130207915124e-5,-0.0003497330454340644
1,93,1.0006612074190369,-0.00011019738079051352,-0.00017834311503622233
1,94,1.0006638978178453,-0.0001927261483747511,0.00021550427746991487
1,95,1.0006646376287274,-0.0002839221972428049,0.0008817471377474072
1,96,1.000726385901185,-0.00025917436775140716,0.0016775604987239897
1,97,1.000913222548632,-0.0010191507069529002,0.0033916554427023305
1,98,1.0002232513835558,-0.0010813561956087563,0.006601225522221396
1,99,1.0006923979574451,0.000578433731141864,0.0076806328702786
1,100,1.001866136734503,-0.007677041260633673,0.01640860817019177
1,101,0.9964495329686285,0.026525975025124302,0.013998082441685374
2,1,1.0009055020867148,1.688385703302115e-5,-5.4631659225686245e-6
2,2,1.0009064824699423,3.857854904194828e-5,-3.522828375200924e-5
2,3,1.0009059265217617,4.845760952199777e-5,-8.554573966494048e-5
2,4,1.0009055632270019,5.82283966042467e-5,-0.00014899581361207235
2,5,1.000905089153903,7.106030209271207e-5,-0.00022612906009039803
2,6,1.0009044541375713,8.670751534454771e-5,-0.0003202712946124247
2,7,1.0009036733304142,0.0001053157460716499,-0.0004343476187440596
2,8,1.0009027163763686,0.0001273170075005406,-0.0005714965953652685
2,9,1.0009015544837756,0.00015309138922763333,-0.0007347265754172529
2,10,1.000900157554372,0.0001827151618835539,-0.0009268075432708649
2,11,1.0008985113374256,0.00021584498846570417,-0.0011493766412857213
2,12,1.0008966344677783,0.0002517140788833621,-0.0014025255285700334
2,13,1.0008945993639213,0.0002891334019078117,-0.0016839572644617225
2,14,1.0008925497462706,0.00032649915592369963,-0.0019887263053893155
2,15,1.0008907172972368,0.00036183283181572223,-0.002308632410698753
2,16,1.0008894287298655,0.000392877901268427,-0.0026322681263104063
2,17,1.0008891032374634,0.0004172442197084911,-0.002944877695941527
2,18,1.0008902317183268,0.00043256657069785725,-0.0032288958752627692
2,19,1.0008933430501545,0.0004366588444089632,-0.0034643110418828443
2,20,1.0008989539527606,0.000427656743598107,-0.0036295675712953598
2,21,1.0009075113263022,0.00040416341417056815,-0.0037022317959675044
2,22,1.000919325866765,0.0003654144818158262,-0.003660088459178421
2,23,1.0009345069146545,0.000311480960064369,-0.0034820438043704056
2,24,1.000952897911946,0.0002435005493985419,-0.003149463888722721
2,25,1.0009740230973605,0.0001638957201836422,-0.00264738807417139
2,26,1.0009970490912963,7.64952534378442e-5,-0.0019660630638914742
2,27,1.001020781819917,-1.3525774220249014e-5,-0.0011021399734534895
2,28,1.0010437077413823,-9.99358077577845e-5,-5.977456144539571e-5
2,29,1.0010640898290695,-0.00017594848974683208,0.001149003575096484
2,30,1.0010801047421398,-0.00023487911148927613,0.002504395014579808
2,31,1.0010900153815745,-0.00027086704023774363,0.003979855679622669
2,32,1.0010923495462354,-0.0002795400645576923,0.005543627084435501
2,33,1.0010860632770793,-0.00025847499256257235,0.007160918389749964
2,34,1.0010706479358802,-0.0002073552720817354,0.008796094165333876
2,35,1.0010461724446513,-0.00012781675130538558,0.010414849973015164
2,36,1.001013246130043,-2.305651997616252e-5,0.011985826370613668
2,37,1.0009729294966945,0.00010268305127727167,0.013481818959410795
2,38,1.0009266016898481,0.0002446433933898257,0.014880301935727655
2,39,1.0008758263831172,0.00039801034011436047,0.0161635929281654
2,40,1.0008222191657512,0.0005582605590215169,0.017318538842701698
2,41,1.0007673488269144,0.0007213846110422328,0.018336067071979496
2,42,1.000712656788689,0.0008839973521129308,0.01921052384416857
2,43,1.0006594168727525,0.0010433615702705136,0.019939052520791502
2,44,1.0006087062872775,0.0011973479792533688,0.020520950295562435
2,45,1.0005614091423372,0.0013443591883054436,0.020957122077711797
2,46,1.0005182169165414,0.0014832310929438776,0.021249633250554942
2,47,1.000479653381632,0.0016131325589379653,0.0214013143840127
2,48,1.0004460837251388,0.0017334628405773964,0.02141556742068364
2,49,1.0004177454325243,0.0018437649523208599,0.02129609710235693
2,50,1.000394753401152,0.0019436411852558097,0.02104698468874111
2,51,1.0003771302303506,0.0020326945271056693,0.020672474910947907
2,52,1.0003648013404824,0.00211046799109223,0.020177336493633433
2,53,1.0003576245774226,0.0021764205774634673,0.01956660229007047
2,54,1.0003553727255692,0.0022298922066269207,0.018846262218879202
2,55,1.0003577664820515,0.0022701221940251547,0.018022809581556856
2,56,1.0003644426986473,0.002296242712435301,0.017104343576816703
2,57,1.0003749979895267,0.002307350787686208,0.016099698428255118
2,58,1.0003889407306772,0.0023025317333005475,0.015020065729254217
2,59,1.000405755741536,0.002280991987857044,0.013877371393610364
2,60,1.0004248370588764,0.0022421037369781583,0.012686574439532647
2,61,1.0004455867962365,0.002185588044859678,0.011462829074195723
2,62,1.0004673237300683,0.0021115500342556845,0.01022470776627093
2,63,1.000489429392997,0.0020206728256797427,0.008989588579347148
2,64,1.0005112237279532,0.0019141930280577011,0.007778226312966279
2,65,1.0005321658919306,0.0017940276148229405,0.006607798647769745
2,66,1.0005516843435736,0.0016626455676606456,0.005498510254815707
2,67,1.0005694267932312,0.0015230887225016045,0.0044638563605949675
2,68,1.000585031889735,0.001378699166912865,0.0035201356436401856
2,69,1.0005984170671256,0.001232968451044854,0.0026737763223051657
2,70,1.0006094793514575,0.001089299438536465,0.0019345318995375293
2,71,1.0006183850155577,0.0009509644447646522,0.0013000067089618658
2,72,1.0006252573139935,0.0008205552711191917,0.0007725944767518561
2,73,1.000630498819102,0.0006996427813409233,0.00034171269734106216
2,74,1.000634286213262,0.0005893379122270804,4.581014611300496e-6
2,75,1.000636881785223,0.0004912319415462472,-0.00025428239370807785
2,76,1.0006385321920708,0.00040614757960745447,-0.00044134056407688554
2,77,1.0006398626349617,0.0003322575287113137,-0.0005758593165128541
2,78,1.0006409915045333,0.0002662015767434011,-0.0006624935857896709
2,79,1.0006416977463621,0.0002068112859220377,-0.0007147102753534197
2,80,1.0006415238649682,0.00015661699923138656,-0.0007323491616697886
2,81,1.0006406685354452,0.00011959064971498202,-0.0007332141997716606
2,82,1.0006394251716637,9.874150254938804e-5,-0.0007276416347036394
2,83,1.0006382503022502,9.520786911796976e-5,-0.0007453497531692666
2,84,1.0006369549685679,0.00010848734889319312,-0.0008025496352494114
2,85,1.0006354759949407,0.000137585362831108,-0.0009298875325443046
2,86,1.0006334246607904,0.00017851990013623606,-0.0011373625609174011
2,87,1.0006303868231106,0.00022433170275538652,-0.0014424732012978025
2,88,1.0006268784059722,0.00026261591745917727,-0.0018323547433503533
2,89,1.0006224536568955,0.0002774814449369343,-0.002291029035222516
2,90,1.0006191840026613,0.00025583485951107156,-0.0027732547769245214
2,91,1.000620146803597,0.00016598354512813323,-0.003214960367265935
2,92,1.0006262760301006,-2.1529191390378806e-5,-0.003521373472672066
2,93,1.000654110157785,-0.00039729046542416916,-0.003572446586669008
2,94,1.0006666658475216,-0.0008843685127146703,-0.003181308147032839
2,95,1.000728268698305,-0.001248925013279554,-0.002483472385028772
2,96,1.0007956862061904,-0.0024014801551330983,-0.0006669164754992184
2,97,1.0006959450354318,-0.003888418323191715,0.0018664717043892318
2,98,1.0014548033887838,-0.004633793098843167,0.003948887533026332
2,99,1.000353369780406,-0.010807694777004108,0.016208059002044493
2,100,0.9995626535082806,-0.01219166973408477,0.02181161779327055
2,101,1.0037156985913187,0.05152853328379243,0.005629362838987681
3,1,1.0009055273526033,3.193325607998559e-5,-5.496727124514367e-6
3,2,1.0009071008202204,8.456767177717653e-5,-3.975735173529917e-5
3,3,1.000906663552773,0.00011740907462569409,-0.00010708345779167438
3,4,1.0009060125623503,0.00014412683722812194,-0.00020085218073742015
3,5,1.0009054326605766,0.0001748431802838943,-0.00031609922897139536
3,6,1.0009047876395392,0.0002116310937262451,-0.0004549634913855776
3,7,1.0009039771734587,0.0002539936559343393,-0.0006216444421567373
3,8,1.0009029837573211,0.00030161820071307244,-0.0008197318095775901
3,9,1.0009017759082264,0.000353693626711104,-0.0010517853577562046
3,10,1.000900336628985,0.00040818597140709884,-0.0013190180972715896
3,11,1.000898671833701,0.0004616128012509454,-0.0016200533835871213
3,12,1.000896827635873,0.0005091498011174567,-0.0019503564321410667
3,13,1.0008949085211587,0.0005448855937697456,-0.0023013463888769386
3,14,1.0008930890271943,0.0005621150911923315,-0.002660500977710468
3,15,1.000891617818128,0.000553730657595551,-0.0030112851617944783
3,16,1.0008908127254734,0.0005127280640413546,-0.0033340288244587037
3,17,1.000891044559145,0.00043275475908920435,-0.003606588073585582
3,18,1.000892712530217,0.0003085931318704234,-0.0038057082847250344
3,19,1.0008962116310869,0.0001365136472986022,-0.00390788433277849
3,20,1.0009018992655265,-8.54909036167855e-5,-0.0038905545833581995
3,21,1.0009100603337946,-0.0003575280926255408,-0.003732630070131002
3,22,1.0009208745876743,-0.0006776014567566603,-0.003415339989139058
3,23,1.0009343791164478,-0.001041329881415822,-0.002922674929201303
3,24,1.0009504241667724,-0.0014416200594132796,-0.002242432788354503
3,25,1.000968618522354,-0.0018684311547727587,-0.0013671050001568413
3,26,1.0009882780800226,-0.002308825478384728,-0.00029527940127657476
3,27,1.0010083960249903,-0.002747458339563742,0.0009674513551772168
3,28,1.001027652884847,-0.0031675321650424452,0.002407613161704627
3,29,1.0010444799415155,-0.0035521350372899802,0.004004009942888117
3,30,1.001057181329199,-0.0038857938615009034,0.005728382527625099
3,31,1.0010641120646526,-0.00415599089756103,0.00754728896383721
3,32,1.0010638744591192,-0.0043543315875583825,0.009424255514689799
3,33,1.001055497484007,-0.004477117937066107,0.01132250426081658
3,34,1.0010385475020194,-0.004525236709428503,0.013207102790127347
3,35,1.0010131653857939,-0.004503466172788254,0.015046934599096149
3,36,1.0009800144534264,-0.004419416569800713,0.01681560942026231
3,37,1.000940181817095,-0.004282360308375719,0.01849207344238316
3,38,1.0008950361990758,-0.004102152280686675,0.02006029454411418
3,39,1.0008460979299698,-0.003888372646311791,0.02150895789244565
3,40,1.0007949077594074,-0.0036497316092025953,0.0228305603371999
3,41,1.0007429409787414,-0.0033937303949197954,0.024020822744210718
3,42,1.0006915303934045,-0.003126525928525997,0.02507771487860639
3,43,1.0006418385174631,-0.0028529517491331794,0.02600095597481627
3,44,1.0005948286392998,-0.0025766333722727955,0.026791206610485733
3,45,1.000551276735997,-0.00230016519839908,0.027449776598972048
3,46,1.0005117686232279,-0.0020253055542021176,0.027978031833867618
3,47,1.0004767293068397,-0.0017531825746109275,0.02837729636090355
3,48,1.0004464283478163,-0.0014844825914931575,0.0286484504725589
3,49,1.0004210120731207,-0.0012196342250257932,0.02879197377862736
3,50,1.0004005083892382,-0.0009589632634220209,0.02880771272264203
3,51,1.0003848553354002,-0.0007028461778293723,0.028695014898128986
3,52,1.0003739036885657,-0.00045182933921942143,0.028452681262364284
3,53,1.0003674402046674,-0.0002067544857769924,0.028079153407562632
3,54,1.0003651902708002,3.1160478416749474e-5,0.027572716694731797
3,55,1.0003668358404356,0.00026022996739455975,0.026931697041497074
3,56,1.0003720216468022,0.0004782763318385616,0.02615503206050162
3,57,1.0003803669404108,0.0006825962524353284,0.02524238719041535
3,58,1.000391477932191,0.0008700295801277935,0.024195245515390523
3,59,1.000404949835385,0.0010370222206583614,0.02301673553338789
3,60,1.0004203861011338,0.0011798307899394218,0.02171338567281691
3,61,1.000437384839181,0.0012947105886727292,0.020294250880305686
3,62,1.0004555644132855,0.001378267225902986,0.0187734299231191
3,63,1.000474530272495,0.001427744274060065,0.01716782188371388
3,64,1.0004939082228725,0.0014414516756684017,0.015500466138266743
3,65,1.0005132967320762,0.001419024064260738,0.013796092821081164
3,66,1.0005323159689732,0.0013617584696820528,0.012085420923248543
3,67,1.0005505599570652,0.0012726627013993097,0.010397808763588898
3,68,1.0005676597542503,0.0011564739147604704,0.008766959534175582
3,69,1.0005832616153874,0.0010193027029165272,0.007220496767905526
3,70,1.0005970987175314,0.0008683223312191177,0.005787855236475909
3,71,1.0006089714851674,0.0007112653166341812,0.004487508778858542
3,72,1.0006187715511679,0.0005556924802650916,0.0033379710902155294
3,73,1.000626540152563,0.00040786727318951806,0.0023433421910326476
3,74,1.0006324621624867,0.00027267252639494977,0.001507868379893907
3,75,1.000636724008543,0.00015498540299302744,0.0008217061678700165
3,76,1.0006394202228386,5.938191238351547e-5,0.00027776556501821946
3,77,1.0006409265972092,-1.393602149593983e-5,-0.0001456187385103467
3,78,1.0006418309247442,-7.08966354913317e-5,-0.00046462656797033054
3,79,1.0006423984648993,-0.0001172318948348067,-0.0007018156090323292
3,80,1.0006422022773294,-0.00015009578052038925,-0.0008656017021848662
3,81,1.0006408039806165,-0.00015773967759748008,-0.0009756295730244258
3,82,1.0006383240083145,-0.0001263150800779695,-0.0010531330733542423
3,83,1.000635323245846,-4.697084058582387e-5,-0.0011427145161101255
3,84,1.0006322673204289,8.132087953130101e-5,-0.0012873046238572488
3,85,1.0006292157700118,0.000252077081724523,-0.0015363839565299853
3,86,1.0006258336111742,0.00044999311491078844,-0.0019175046059963369
3,87,1.000621953610548,0.0006467267293667115,-0.002444004305501401
3,88,1.0006165237511913,0.0008087203535036807,-0.0030892817584342452
3,89,1.0006116084408,0.0008981537479732572,-0.003814505430427299
3,90,1.0006071198038748,0.0008691835894441487,-0.004527127813344456
3,91,1.000605343101307,0.0006920744790503178,-0.005151676718372806
3,92,1.0006107368881745,0.00027157926128453197,-0.005552950981154069
3,93,1.0006059826580882,-0.0003810885688188765,-0.005682116991832574
3,94,1.0006651336526833,-0.0011909947417940783,-0.005662479498098444
3,95,1.0006742085432891,-0.0025882332852302666,-0.004635941700959478
3,96,1.00054381468977,-0.0037883600937875855,-0.0035148906265628542
3,97,1.000999816500046,-0.005489075399672251,-0.0030019906995597426
3,98,1.0006242597111858,-0.012500818948400256,0.0035907816742355345
3,99,0.9994512854653906,-0.0169325468294382,0.005966081598667062
3,100,1.0005257440294266,-0.0026821255604456006,-0.0005980167492445293
3,101,1.0004443654423198,0.05520510249678453,-0.0019180037291442172
4,1,1.0009052655688901,5.138617876015287e-5,-6.8000315793486375e-6
4,2,1.0009070592533118,0.0001415478106906037,-4.7342960968133696e-5
4,3,1.0009068537151045,0.00020968352299807028,-0.00012778293751846838
4,4,1.0009062496331707,0.0002646454548250697,-0.00024346989215672662
4,5,1.000905522533019,0.00032023557090215946,-0.00038760057045919593
4,6,1.0009048927207322,0.0003850602931208239,-0.0005573317425080078
4,7,1.0009041974538908,0.0004603366990492953,-0.0007549121910770402
4,8,1.0009033330240504,0.0005446261623671922,-0.0009829850447374627
4,9,1.0009023020018988,0.0006357709192346743,-0.0012411499136043998
4,10,1.0009011093121627,0.0007298800824933701,-0.0015260322957046982
4,11,1.0008997828386241,0.000820909975065502,-0.0018302501726701849
4,12,1.0008983858536016,0.0009010722120283771,-0.002142303806846937
4,13,1.0008970259732948,0.0009615641588344771,-0.0024462133311472915
4,14,1.0008958614675465,0.0009933644687818391,-0.002722599982513045
4,15,1.0008950945866335,0.0009880000104409714,-0.002949544522395174
4,16,1.0008949607839044,0.0009382491519188198,-0.0031044866635676995
4,17,1.0008957114349317,0.0008386535324874029,-0.0031653383001602345
4,18,1.0008975988329227,0.000685719196107149,-0.0031119786859957143
4,19,1.0009008617537862,0.00047781697785444406,-0.0029264777037328335
4,20,1.0009057198702533,0.0002149500289708496,-0.0025934472885515993
4,21,1.0009123695450646,-0.0001013604042803424,-0.0020993648682200556
4,22,1.0009209770264131,-0.0004678434741397125,-0.0014326380029378652
4,23,1.0009316488020659,-0.0008788380775397211,-0.0005835066271574807
4,24,1.000944371625223,-0.0013254136217027588,0.00045466015480686493
4,25,1.0009589242939292,-0.0017946390216837,0.0016840687180185556
4,26,1.000974784238632,-0.002269405021051497,0.003100288915383195
4,27,1.0009910590225373,-0.002729072166429402,0.004690964643408989
4,28,1.0010064689374267,-0.0031509952200502013,0.0064347010414585
4,29,1.0010194198482714,-0.0035127782926358407,0.008301895102952404
4,30,1.0010281628029067,-0.003794845024755102,0.010256275340280922
4,31,1.0010310306334878,-0.003982748697129281,0.012258188860853014
4,32,1.001026667469092,-0.004068655457981016,0.014267573163213509
4,33,1.0010142236515285,-0.004051724773028936,0.016247363884371945
4,34,1.0009934365086324,-0.003937421030251157,0.01816534451588998
4,35,1.000964640139881,-0.0037360837791355966,0.019995784085436782
4,36,1.000928663682392,-0.0034611526022752365,0.021719330648167525
4,37,1.000886720251049,-0.003127438031274802,0.023323046649999322
4,38,1.0008402384685715,-0.0027496695261464603,0.02479913939738932
4,39,1.0007907520477235,-0.002341452277284221,0.02614440443802684
4,40,1.0007397601280288,-0.0019146189811165152,0.027358710773175747
4,41,1.0006886762860656,-0.0014789369076492391,0.02844453659541273
4,42,1.0006387431437997,-0.0010420668493111669,0.029405641609829596
4,43,1.000591040573744,-0.0006097065442508857,0.030246916904954842
4,44,1.0005464400629878,-0.00018582736876990075,0.030973320521193604
4,45,1.0005056493002165,0.00022703362778640285,0.031590021854961216
4,46,1.0004691838118243,0.0006274815682841249,0.03210153307730528
4,47,1.0004374263622067,0.001014976708202055,0.03251205673300341
4,48,1.000410600252333,0.0013895812583206053,0.03282472184276205
4,49,1.000388830595791,0.0017517245480730887,0.033042049689285855
4,50,1.0003721124905312,0.0021020042124947473,0.033165226559069554
4,51,1.0003603687082956,0.0024409965737845875,0.03319463395918982
4,52,1.0003534122280089,0.0027690957303176346,0.03312912863284046
4,53,1.0003509995403073,0.003086346527639303,0.03296662116585933
4,54,1.0003527909194068,0.003392304081323706,0.03270338508009179
4,55,1.0003584012516762,0.0036858755463707645,0.03233470980156429
4,56,1.0003673639659483,0.0039652026300207345,0.03185433134373812
4,57,1.0003791826378423,0.004227526176537283,0.03125522652349412
4,58,1.000393305729483,0.004469131874285443,0.03052934577943583
4,59,1.00040918132793,0.004685295051853093,0.02966862562386798
4,60,1.0004262479953825,0.004870375909203405,0.028665275648071937
4,61,1.0004439895057327,0.005017943183189921,0.027512995549464212
4,62,1.0004619400958967,0.0051211281342701575,0.026208045540761636
4,63,1.0004797250147952,0.005173018678599584,0.024750371522275504
4,64,1.0004970674317923,0.00516731849066835,0.023145493463491613
4,65,1.000513792198942,0.005098986294902873,0.02140475752364734
4,66,1.0005298207585274,0.00496506253644565,0.019547742648432134
4,67,1.0005451209927678,0.004765292617993167,0.017600420808401875
4,68,1.0005596977618785,0.004502735104266922,0.015597614907710078
4,69,1.0005735117395287,0.0041839240965620365,0.013577920907234989
4,70,1.0005865064763848,0.003818809166607358,0.011586060228124088
4,71,1.0005985249129001,0.003420160679191568,0.009664523062180599
4,72,1.0006093955492243,0.0030027227372621565,0.007856691862645586
4,73,1.0006188908129476,0.002581698684785715,0.006196334330146164
4,74,1.0006269187663288,0.0021713831741402402,0.004712393059622469
4,75,1.0006334305354065,0.0017848946658765475,0.0034193105031332938
4,76,1.0006383831288277,0.0014347285473458016,0.002326263227161039
4,77,1.0006416708480255,0.0011298342339411678,0.0014275243232219242
4,78,1.0006436452381346,0.000870055887047282,0.0007098339499412953
4,79,1.0006449328660811,0.0006474483624496988,0.00014753101468664145
4,80,1.000645794762121,0.0004595941311673913,-0.00027897390394187373
4,81,1.0006456846673395,0.0003210436203525344,-0.000588342712053803
4,82,1.0006441508972783,0.0002602085573679224,-0.0008011053646099777
4,83,1.0006415591989615,0.0003028360069259216,-0.0009610746510822262
4,84,1.0006387809980524,0.0004564815019668568,-0.0011275641378663513
4,85,1.000636616117722,0.0007063115864197036,-0.0013674380338398657
4,86,1.0006351659196016,0.001010750251149749,-0.0017232222164378895
4,87,1.0006332458786096,0.001307822337275106,-0.0022021945740271056
4,88,1.0006315168116011,0.0015267578189705159,-0.0027658564826764363
4,89,1.0006283915710126,0.0015943468294637077,-0.003327361325726263
4,90,1.0006274235254589,0.0014569352799593998,-0.003802028829630182
4,91,1.0006267757080982,0.0010377959334599723,-0.004045742157327952
4,92,1.0006191818055012,0.00039010912912381486,-0.0040592043531828765
4,93,1.0006593621008433,-0.0004671292879358787,-0.003950490217857128
4,94,1.0006360145265323,-0.0019717055277178154,-0.0031364684321323073
4,95,1.000597513263937,-0.0032981723824386223,-0.0026555616611468615
4,96,1.0009244242614908,-0.00468572647935292,-0.002229283334238663
4,97,1.0005244756885356,-0.010017785530178895,0.0024240552227024212
4,98,0.9999869397296031,-0.014432746530040912,0.0029792896278095266
4,99,1.0008315904374723,-0.010668699412843473,-0.0020591966081971525
4,100,1.0012223759601404,-0.0014602091820635982,-0.0024440052046580856
4,101,0.9997170569342968,0.05211491810731811,-0.0005463588776624037
5,1,1.000905163782242,7.228744000150837e-5,-7.667778818822337e-6
5,2,1.0009071337846025,0.000205833851809405,-5.3657835991072976e-5
5,3,1.0009069145919132,0.00031382221922838095,-0.00014420299804020762
5,4,1.0009064644232777,0.000401628993858175,-0.0002723267884077974
5,5,1.0009058041721735,0.0004834237154918283,-0.0004309314783643238
5,6,1.000905108448312,0.0005715497159738746,-0.0006147702246677785
5,7,1.0009044698939726,0.0006704548129100369,-0.0008208715860513088
5,8,1.0009037332112172,0.0007767622215848473,-0.0010482357648519292
5,9,1.0009028196913337,0.0008836404718286141,-0.0012927132691276926
5,10,1.0009017474749875,0.0009822037050578698,-0.0015455546897276972
5,11,1.0009005333363692,0.0010611277623764626,-0.0017932876785512742
5,12,1.0008992124175196,0.001107349124889222,-0.0020188850669089747
5,13,1.000897851604776,0.001107517029526136,-0.0022021693863622516
5,14,1.0008965556354874,0.0010494362698289944,-0.002321972391687662
5,15,1.0008954662127318,0.0009231749961980709,-0.002357408910977039
5,16,1.0008947580523526,0.0007216815908539006,-0.002290010721371337
5,17,1.0008946322719139,0.0004408416861337647,-0.00210399650845585
5,18,1.000895319414972,7.902060451942399e-5,-0.001786638959636287
5,19,1.0008970861830981,-0.00036364887076244517,-0.001326667319135812
5,20,1.000900251549519,-0.0008857695487591651,-0.0007133664114256534
5,21,1.0009051896977388,-0.001484518397685324,6.501872322091704e-5
5,22,1.0009123031770781,-0.0021545996652220525,0.001020657587187501
5,23,1.0009219407513203,-0.0028865444126661153,0.0021650614825916062
5,24,1.0009342649329311,-0.0036649812736972306,0.0035055761739139534
5,25,1.0009490992105152,-0.004467667316250482,0.005042398237402567
5,26,1.0009657892444397,-0.005265858203742051,0.006764873358479006
5,27,1.0009831391432857,-0.006026278727324891,0.00865042054247889
5,28,1.0009994495155556,-0.006714499990698069,0.010664435560500568
5,29,1.0010127100051087,-0.007299089367506953,0.012763753192827632
5,30,1.0010208663760796,-0.007755501507299162,0.014900437609863081
5,31,1.0010221443585388,-0.008068763748308498,0.017027426398492272
5,32,1.0010152712879636,-0.008234383798194585,0.019102061099708058
5,33,1.000999640959322,-0.008257549668229532,0.02108972147692425
5,34,1.0009752924854745,-0.008151069897090192,0.02296424734939623
5,35,1.000942871123451,-0.007932757627191632,0.024708670526844213
5,36,1.0009034406418733,-0.007622816522057227,0.026313247115134927
5,37,1.0008583834164808,-0.007241668448350494,0.027774907558461327