TITLE="CMs_NON_Orthogonal Re = 10000.0"
VARIABLES = X,Y,Rho,U,V
ZONE
I = 101	J = 101
F=POINT
1,1,1.0009389526139858,1.2498062479057573e-6,-2.7102883663462964e-6
1,2,1.000940001737876,4.732164739795182e-6,-1.7545017127218984e-5
1,3,1.0009399266388694,4.894225456513934e-6,-3.6764830212359176e-5
1,4,1.0009401717585944,5.38500268954689e-6,-5.896696534646517e-5
1,5,1.0009404319897421,5.67265332228884e-6,-8.560779512468587e-5
1,6,1.0009406952730673,5.359030661298682e-6,-0.00011774359387240189
1,7,1.0009409848669921,3.9983072871682125e-6,-0.0001561980773301142
1,8,1.00094131419731,9.760909413248485e-7,-0.00020208161092811694
1,9,1.0009416766246064,-4.588797847914067e-6,-0.00025645830830826145
1,10,1.0009420566973972,-1.3872745495442109e-5,-0.0003205296484457534
1,11,1.0009424290354487,-2.8346518239500957e-5,-0.0003951620656052384
1,12,1.0009427682217522,-4.975897031452858e-5,-0.00048097290268970757
1,13,1.0009430581485128,-8.009869689283994e-5,-0.0005778258818777993
1,14,1.00094330683367,-0.00012151966224535166,-0.000684865730521968
1,15,1.0009435625269139,-0.00017623901360023798,-0.0008000606911827019
1,16,1.0009439310479287,-0.00024638783290165036,-0.000920283304938184
1,17,1.0009445862658854,-0.0003338539578210924,-0.0010410281728863503
1,18,1.0009457710979102,-0.00044011510918314845,-0.0011566482906305749
1,19,1.0009477823218613,-0.0005661096963374832,-0.0012603104152528184
1,20,1.0009509426308627,-0.0007121299990331375,-0.001344367409488373
1,21,1.0009555595807693,-0.0008777658810856011,-0.0014004741639276174
1,22,1.000961879323276,-0.0010618711424798927,-0.0014200079214293805
1,23,1.0009700364069478,-0.0012625733000348927,-0.0013942860998962477
1,24,1.0009800069998924,-0.0014773057389753127,-0.001315047911674641
1,25,1.0009915664125744,-0.0017028848354649333,-0.001174829427557173
1,26,1.001004258068426,-0.0019356183974915352,-0.0009675789624339892
1,27,1.001017377283108,-0.0021714611675772546,-0.0006891851863918029
1,28,1.0010299816793664,-0.0024061967420850477,-0.00033811080090923246
1,29,1.0010409355052596,-0.0026356442044652016,8.4183904643832e-5
1,30,1.0010489921392487,-0.0028558621682211105,0.000572916145177942
1,31,1.001052904202429,-0.003063356220762775,0.0011199899557995236
1,32,1.0010515486438682,-0.003255281139480689,0.0017142429668489014
1,33,1.0010440476416924,-0.0034296133126444366,0.002342108968393756
1,34,1.0010298685348775,-0.0035852136994386024,0.0029885175044841333
1,35,1.0010088837288285,-0.0037217640982847825,0.0036379316870805843
1,36,1.0009813831288747,-0.0038396069341374815,0.004275273395736466
1,37,1.0009480371894328,-0.003939556090327555,0.004886695491683586
1,38,1.000909823687118,-0.004022710699487307,0.005460111482324447
1,39,1.0008679306254271,-0.0040903016749103864,0.005985507115329374
1,40,1.0008236562758293,-0.004143568931664998,0.006455044772645956
1,41,1.0007783150229654,-0.004183678321140276,0.006862995777373437
1,42,1.000733163876774,-0.004211665451136306,0.007205576821854269
1,43,1.00068934549378,-0.004228409898705937,0.007480687526672549
1,44,1.000647856618079,-0.004234624873310954,0.007687667398416293
1,45,1.00060952732646,-0.004230865790589985,0.007826993110801428
1,46,1.0005750214303402,-0.004217543764296402,0.007900084467869772
1,47,1.0005448360341058,-0.00419494967605335,0.007909038096137392
1,48,1.0005193187052122,-0.004163276063169504,0.007856542670492883
1,49,1.000498672008801,-0.004122645733712159,0.007745659656836648
1,50,1.0004829773134485,-0.00407313358612979,0.00757986781788892
1,51,1.0004721946546902,-0.004014795662338124,0.007362859006562444
1,52,1.0004661899945564,-0.00394768613841767,0.007098721941264393
1,53,1.0004647257088262,-0.003871887471572328,0.006791689299706161
1,54,1.0004674936242612,-0.003787517119436284,0.006446485566878831
1,55,1.0004740940632406,-0.0036947639794707395,0.006067921335806131
1,56,1.0004840806463826,-0.003593873523512047,0.005661473537947029
1,57,1.0004969263859946,-0.003485203944454326,0.005232550391576138
1,58,1.0005120882619063,-0.003369164988744588,0.004787468316850659
1,59,1.0005289577351293,-0.003246325570740804,0.004332070845928221
1,60,1.0005469531387605,-0.0031172551569260314,0.003873470975199654
1,61,1.000565449726898,-0.002982752379589087,0.003417434306553028
1,62,1.0005839050738234,-0.002843490737500397,0.0029716703392602775
1,63,1.0006017610297535,-0.0027005016704030136,0.002540873639018233
1,64,1.0006186017062333,-0.0025544576742824033,0.0021331022276436054
1,65,1.0006340198718562,-0.0024066140865105345,0.0017505013089465426
1,66,1.000647796861963,-0.0022575334669656636,0.0014013993719905378
1,67,1.0006597304127274,-0.0021086402800514627,0.0010837350239888241
1,68,1.0006698269778038,-0.0019603457819480858,0.0008062638374590755
1,69,1.0006780962107027,-0.0018141221425197903,0.0005615766815715485
1,70,1.000684717422638,-0.001670325059757786,0.00035909774913764277
1,71,1.0006898411910266,-0.0015302435508565803,0.00018620986392158182
1,72,1.0006937838628736,-0.001394223747377084,5.294546509448544e-5
1,73,1.000696767735314,-0.0012634503495745995,-5.721997505174997e-5
1,74,1.000698989509681,-0.0011383256472035947,-0.00013308452497702225
1,75,1.0007006088741952,-0.0010195013666766048,-0.00019329928821675663
1,76,1.0007020130249025,-0.0009071465495297421,-0.0002260598039136013
1,77,1.0007034100255918,-0.0008021825074949122,-0.00025111619538989254
1,78,1.000704680591735,-0.0007051959721391454,-0.0002538256380354371
1,79,1.0007055382693022,-0.0006166236351662204,-0.0002522492313889304
1,80,1.0007060780385382,-0.0005357664764070878,-0.00022988443505861608
1,81,1.00070662168732,-0.0004619010354315978,-0.0002073868809697422
1,82,1.0007075391589164,-0.00039376144743362516,-0.00017010104605257183
1,83,1.0007088975931508,-0.0003307149089956399,-0.00014210191867737953
1,84,1.0007106488275714,-0.0002718534445393063,-0.00010864088408981383
1,85,1.0007126726423285,-0.00021759929203636245,-9.532042628903759e-5
1,86,1.000714742125803,-0.00016793055974314048,-8.538483223910163e-5
1,87,1.0007169025549416,-0.00012534872812479934,-0.00010483375804396201
1,88,1.0007186495016658,-9.144756082520429e-5,-0.00012950495645046815
1,89,1.0007199948988528,-6.803395876483722e-5,-0.00017889284529057047
1,90,1.000720876616989,-5.861208716780509e-5,-0.00021378390504857224
1,91,1.000720979667024,-5.760468566492091e-5,-0.0002411915837209539
1,92,1.0007300982937344,-8.49376704985731e-5,-0.0001987158032284277
1,93,1.0007334131052548,-0.0001427233085651637,-2.8860147568335706e-5
1,94,1.0007337992973293,-0.0002212642521151588,0.00035905403216418975
1,95,1.0007332449358086,-0.00030805577705041463,0.0010080430886913114
1,96,1.0007916176103309,-0.00027703756624911254,0.0017705828414436551
1,97,1.0009773591580933,-0.0010323138642321596,0.003441472094833252
1,98,1.0002921991520257,-0.0010941461558407106,0.006611160301806552
1,99,1.0007531504382736,0.0005602604528719369,0.007654273748943639
1,100,1.0019311366129067,-0.007699340185496672,0.01641346011286226
1,101,0.9965198450035633,0.02652050500013426,0.013990463150414268
2,1,1.00093770863363,1.8465331249528448e-5,-5.6167788859267876e-6
2,2,1.0009387370785803,3.926121253426808e-5,-3.551542336819141e-5
2,3,1.0009381636586767,4.718642419954226e-5,-8.348250321143827e-5
2,4,1.000937985679723,5.6544922822189107e-5,-0.0001424895340641294
2,5,1.0009377470510945,6.945256972582973e-5,-0.00021412179589377377
2,6,1.0009373857986,8.526329667527397e-5,-0.00030156044004365037
2,7,1.0009369458781654,0.0001045609603872554,-0.00040717032015462443
2,8,1.000936407506618,0.00012831841094054495,-0.0005337656805573285
2,9,1.0009357473810125,0.0001574923861235101,-0.0006841426640680303
2,10,1.000934940733456,0.00019290486179241432,-0.0008609249238124481
2,11,1.0009339769370946,0.0002351439747247426,-0.0010656801972974907
2,12,1.0009328707985803,0.00028450131808683096,-0.0012985553687188953
2,13,1.0009316817718252,0.00034092428186451013,-0.001557386330294076
2,14,1.000930529649624,0.000404006512374332,-0.0018374375794431997
2,15,1.0009296114092012,0.00047301949601450056,-0.0021308213019261965
2,16,1.0009292052182026,0.0005469871619008949,-0.0024266765780127206
2,17,1.0009296652345685,0.0006247874531626625,-0.002711194908832963
2,18,1.0009313957472614,0.0007052397860404627,-0.0029683590243797784
2,19,1.0009348163549594,0.000787151090676705,-0.0031804418348064744
2,20,1.0009403145104552,0.0008693114699396953,-0.0033289334146976673
2,21,1.0009482010292243,0.0009504708256603459,-0.003395059034337655
2,22,1.0009586639445454,0.0010293439400379466,-0.003360551130229944
2,23,1.0009717317868616,0.0011047006570407323,-0.0032080933093039665
2,24,1.0009872369063206,0.001175564932558461,-0.002922122109340397
2,25,1.0010047872081893,0.0012415056176517635,-0.002489539199996194
2,26,1.0010237392467958,0.0013029426889335732,-0.0019008435745534538
2,27,1.0010431905028716,0.0013613688540883534,-0.0011511425391280228
2,28,1.001061993551334,0.0014193943160429984,-0.00024127557292316884
2,29,1.0010788107542796,0.0014805765625530557,0.0008215336931964509
2,30,1.0010921990782298,0.001549040889585357,0.002023341014290203
2,31,1.0011007313500735,0.001628941814423974,0.003343899626062296
2,32,1.0011031303183058,0.001723855816108891,0.004757586866464793
2,33,1.001098408575646,0.0018362424179791568,0.006235006409753704
2,34,1.001085974081828,0.001967101029299929,0.007744819794726583
2,35,1.0010656956846968,0.002115890093132882,0.009255703475306569
2,36,1.0010379019617892,0.002280685997505478,0.010737995909083862
2,37,1.0010033363554076,0.0024585080645444382,0.01216499733424347
2,38,1.000963062606677,0.0026457137501869478,0.013513759653354922
2,39,1.000918362377092,0.0028383856325948226,0.014765447721600756
2,40,1.0008706188925802,0.003032652827166627,0.01590533828392832
2,41,1.0008212275497876,0.0032249252058704635,0.01692251261249127
2,42,1.000771511396637,0.0034120338833341294,0.017809457209336778
2,43,1.0007226769917905,0.003591295449198769,0.01856146392180093
2,44,1.0006757722833566,0.003760511117914814,0.01917619584494013
2,45,1.0006316841611513,0.003917929210965383,0.019653040072579606
2,46,1.0005911244267007,0.004062175667930782,0.019992861911339335
2,47,1.0005546529975136,0.004192182315584115,0.020197391590975364
2,48,1.0005226733180705,0.004307101133155464,0.02026928368293604
2,49,1.0004954681352085,0.004406239650861142,0.020211498922332902
2,50,1.0004731902604993,0.0044889839701317494,0.020027749472788396
2,51,1.0004559054960773,0.004554761485781539,0.0197217560297857
2,52,1.000443569598595,0.004602980040975725,0.019298181993387255
2,53,1.0004360800322216,0.004633029241505276,0.018761572917478497
2,54,1.0004332322230365,0.004644235533735398,0.01811794581268676
2,55,1.0004347875318964,0.004635913211458529,0.017373121020173018
2,56,1.0004404013656818,0.004607332215447377,0.016535226977189687
2,57,1.0004497199570452,0.004557832064753048,0.015611990246161266
2,58,1.0004622704081312,0.004486794734595029,0.014614541865129744
2,59,1.000477604221459,0.004393831788514022,0.013553029497029214
2,60,1.000495135655094,0.004278744806064139,0.012442280450143603
2,61,1.0005143548449098,0.004141781279961672,0.011294851922193027
2,62,1.0005345966588004,0.003983549752205624,0.01012933969870478
2,63,1.0005553481660296,0.0038053123278073597,0.008959727890960311
2,64,1.0005759266246823,0.0036088157222791115,0.007807449964790119
2,65,1.0005959010856722,0.0033965506807375504,0.006685704937335448
2,66,1.0006146582986086,0.0031714703895829163,0.0056167446452242056
2,67,1.000631943710762,0.002937163708881272,0.004609798666120566
2,68,1.000647301033519,0.0026974652396404984,0.0036852509152185357
2,69,1.0006607211027478,0.0024564687674672636,0.002845150442850688
2,70,1.000671958717356,0.002218107506027351,0.0021056062059819232
2,71,1.0006812461653243,0.00198626574373753,0.0014596115197094816
2,72,1.0006885236684906,0.0017642438004867038,0.0009178680176609959
2,73,1.0006942471362883,0.0015545281849626905,0.0004644957297514232
2,74,1.000698471166392,0.001358760674860712,0.00010588596469876502
2,75,1.0007015997483302,0.0011787254958568897,-0.00017986167854713888
2,76,1.0007036806684786,0.001015656749238223,-0.00038890487289778327
2,77,1.000705416892663,0.0008686484604997361,-0.0005476476253811277
2,78,1.0007069144394645,0.0007347271347115626,-0.0006508521540985979
2,79,1.0007082590185357,0.0006120564438545288,-0.0007209838392952568
2,80,1.0007088583832835,0.0005021220884843357,-0.0007467215244422446
2,81,1.0007089153326485,0.0004084664844155131,-0.0007533581042583686
2,82,1.0007084703348845,0.00033424350817000566,-0.0007380633205328001
2,83,1.0007081431905058,0.0002809194274367113,-0.0007392795378371408
2,84,1.0007076498980714,0.00024815339311825256,-0.0007614327522755969
2,85,1.0007071229176823,0.00023559438732782516,-0.0008469571050724836
2,86,1.0007060762046787,0.0002410828190386783,-0.000996559386365124
2,87,1.0007042470457261,0.0002596425351174396,-0.0012445389763884032
2,88,1.0007018636110327,0.0002803373702536942,-0.0015720951145113068
2,89,1.0006984976935858,0.00028780039155506414,-0.00198306566314765
2,90,1.000695602882198,0.0002680927955940959,-0.0024254580908930692
2,91,1.0006962505698085,0.0001861844852215572,-0.0028519325702265315
2,92,1.0007007852441239,9.473067205107424e-6,-0.0031537317798025453
2,93,1.0007260447024398,-0.00035268985037797,-0.0032227235215933885
2,94,1.0007355581732584,-0.0008243356938897067,-0.0028571393253559456
2,95,1.0007930168774395,-0.0011631723853235915,-0.002214512637419296
2,96,1.0008578001445014,-0.0022885621175400546,-0.00047880554806163184
2,97,1.000759616074562,-0.003763711646290947,0.0019492818597053616
2,98,1.001514501976315,-0.004525197499580677,0.003927742147579896
2,99,1.0004174715918088,-0.010793885623118818,0.01614857589134366
2,100,0.9996316718452415,-0.01221248267115795,0.021800077374744726
2,101,1.003780858960933,0.05153342253790209,0.005625784107086958
3,1,1.0009377512486923,3.186567894591038e-5,-5.5219217931792595e-6
3,2,1.0009393604675725,8.170601882212926e-5,-3.9183798023594716e-5
3,3,1.0009388780565773,0.00010860781402481866,-0.00010226410886850514
3,4,1.0009384153944736,0.00013187239282516308,-0.00018843364968389566
3,5,1.0009380965961097,0.00015968213133861397,-0.0002942764691754938
3,6,1.000937723900333,0.00019206261519641752,-0.0004223642457448849
3,7,1.0009372331902173,0.0002282198814338422,-0.0005763653141916897
3,8,1.0009366352820708,0.0002678642719542986,-0.0007594397373334227
3,9,1.000935898839367,0.0003098156708658865,-0.0009741400936097449
3,10,1.0009350034218811,0.00035147550374181233,-0.0012219450378969034
3,11,1.0009339509076107,0.0003887274941258011,-0.00150193662641267
3,12,1.000932776774868,0.0004159706363516732,-0.0018102137474827634
3,13,1.0009315662029945,0.00042635048041155487,-0.0021389159712593506
3,14,1.000930466818959,0.00041218012676610174,-0.0024762558527934727
3,15,1.000929695394374,0.00036555647051359744,-0.0028064713888174817
3,16,1.0009295331631873,0.0002790967650628994,-0.0031108592692749384
3,17,1.000930307994534,0.0001466459114564872,-0.0033686696756334168
3,18,1.0009323661820897,-3.6211569008665634e-5,-0.0035586760403257763
3,19,1.0009360378699876,-0.0002719301159063985,-0.0036601193461168443
3,20,1.0009416051025941,-0.0005610391373845771,-0.003653773426644134
3,21,1.000949274968226,-0.0009023028819758728,-0.003522144048580839
3,22,1.0009591607493862,-0.0012928303996911513,-0.003249806571119357
3,23,1.000971263616246,-0.0017280110867371565,-0.0028232936007252687
3,24,1.000985449195406,-0.0022012597957782962,-0.002231609471932184
3,25,1.0010014112135897,-0.0027036937142722794,-0.0014667611382619095
3,26,1.0010186284770903,-0.0032239506971883194,-0.0005250076495228169
3,27,1.0010363290549715,-0.0037483525509883773,0.0005921001518676326
3,28,1.0010534798832957,-0.0042615092303445595,0.0018765142671937991
3,29,1.001068816202727,-0.004747341130623212,0.0033133019342068393
3,30,1.0010809197372623,-0.0051903960074237265,0.00488067779391672
3,31,1.0010883489899949,-0.005577256264005158,0.006551194349966936
3,32,1.0010897995169472,-0.005897763238850971,0.00829334781529044
3,33,1.001084266345618,-0.006145805602216554,0.010073916732496987
3,34,1.0010711649368118,-0.006319522986811025,0.011860021808330446
3,35,1.0010503961490917,-0.006420943838642,0.013621173886336076
3,36,1.0010223362244324,-0.006455201206184152,0.015330467706760364
3,37,1.000987776556805,-0.006429541751695865,0.016965481443446385
3,38,1.000947816747504,-0.006352322088099958,0.018508313896828974
3,39,1.0009037534698655,-0.006232142789767917,0.019945521631435002
3,40,1.000856962116153,-0.00607718733252672,0.02126746420242808
3,41,1.0008088083340756,-0.005894790086784586,0.02246782752685463
3,42,1.0007605686188912,-0.005691200371890402,0.023542784960637924
3,43,1.0007133895942766,-0.005471513133069926,0.02449050096876241
3,44,1.0006682528151485,-0.005239706397079385,0.025310391479651993
3,45,1.0006259726515758,-0.004998762124936268,0.02600276953549588
3,46,1.0005871898803425,-0.004750816386125024,0.02656830302510975
3,47,1.000552389457237,-0.004497341558202319,0.027007814485557457
3,48,1.0005219068551396,-0.004239312759997864,0.027321951086443762
3,49,1.0004959509036877,-0.003977389257579126,0.027511083999359757
3,50,1.0004746137933238,-0.003712057371943072,0.02757520189703538
3,51,1.0004578906835726,-0.0034437931939922542,0.027513830221692605
3,52,1.0004456911748592,-0.0031731709192123927,0.027326204600264154
3,53,1.000437851804721,-0.002901006085356561,0.027011108196326274
3,54,1.0004341513246415,-0.0026284230531921178,0.02656745796828428
3,55,1.000434313681484,-0.0023569755754595328,0.02599390793027462
3,56,1.0004380316686863,-0.0020886569268153765,0.025290081642914054
3,57,1.000444956991803,-0.001825981623085302,0.024455680348297516
3,58,1.0004547372246348,-0.0015719063714912229,0.023492712598749577
3,59,1.0004669870864187,-0.0013298441489082297,0.02240364806076189
3,60,1.0004813427022796,-0.001103457137042419,0.021195118365861982
3,61,1.0004974062925023,-0.0008965785167338505,0.019874354717892874
3,62,1.000514820675201,-0.0007128591977978797,0.018454953955932163
3,63,1.0005331821678227,-0.0005556106892096383,0.0169504687978502
3,64,1.0005521377661857,-0.00042734656238178827,0.015382962119393183
3,65,1.000571270550356,-0.00032963798588139646,0.013772322981935441
3,66,1.0005902220311513,-0.0002626789772635675,0.01214849916473964
3,67,1.000608570146357,-0.00022529138288656042,0.010535114965747943
3,68,1.000625963441309,-0.00021470515995192205,0.00896650030279945
3,69,1.0006420260119528,-0.00022687270623460338,0.007464682855514924
3,70,1.0006564817972556,-0.00025657979371638125,0.0060623808635622885
3,71,1.0006691041390838,-0.00029789404926744634,0.004773436391105685
3,72,1.0006797518909258,-0.000344596743089901,0.003622785477518823
3,73,1.0006884124878375,-0.00039110034632504256,0.0026110572016728416
3,74,1.000695189716049,-0.0004329205353320435,0.0017514715422234312
3,75,1.0007003028307184,-0.0004659510162077743,0.0010305637310659805
3,76,1.0007038383809377,-0.00048623660152931857,0.0004513902933239334
3,77,1.0007061207949537,-0.0004927804828343713,-1.0972731694108996e-5
3,78,1.0007076405254864,-0.0004900719960297881,-0.00036180025921436835
3,79,1.0007088556463246,-0.00048405690562161856,-0.0006296729579410889
3,80,1.0007094980273978,-0.000474001832952173,-0.0008141209897683675
3,81,1.0007091638716834,-0.0004498175741260246,-0.0009401241078830592
3,82,1.000707722149732,-0.0003970365471591474,-0.0010157114879012104
3,83,1.0007056270144152,-0.00030426279771875994,-0.0010885949862299133
3,84,1.000703286651064,-0.0001673060190763762,-0.0011902736123759413
3,85,1.000700923858333,1.1170278434581379e-5,-0.0013799417596115089
3,86,1.0006983062771695,0.00022102025428137663,-0.001682511657816555
3,87,1.0006953922958406,0.00043803665399945056,-0.00213136176156859
3,88,1.0006909612674846,0.0006303038706019728,-0.0027044107174905804
3,89,1.0006868973643859,0.0007595580689370424,-0.003384570816932854
3,90,1.0006828020199432,0.0007751078238780803,-0.004077281877727808
3,91,1.0006805008007347,0.0006401688009358846,-0.004714050234771181
3,92,1.000684532226279,0.0002544560650326777,-0.005143117434842585
3,93,1.000678070584777,-0.0003711955226463854,-0.005311461650486239
3,94,1.0007341062505324,-0.001143996846234635,-0.005337809491826271
3,95,1.0007407837404585,-0.002488454872399345,-0.004378151497736316
3,96,1.0006114643698711,-0.0036295318555665426,-0.003343976353207976
3,97,1.0010639384368023,-0.005284849945804793,-0.002963748979956281
3,98,1.0006906395543855,-0.012383818298092594,0.0035604422140240134
3,99,0.9995292239849907,-0.01697114205357911,0.0059309007877699875
3,100,1.0005900452553056,-0.0027503142705123454,-0.000627022230539739
3,101,1.0005088463662088,0.05518500919674116,-0.0019276351084325698
4,1,1.0009373912305035,5.326339213326589e-5,-6.795959187836984e-6
4,2,1.000939215578053,0.0001383013521088734,-4.650666337949788e-5
4,3,1.0009389606339636,0.00019663250851181707,-0.0001220914359708252
4,4,1.000938523217456,0.0002463816944164977,-0.00022912517866169614
4,5,1.0009380498960976,0.00029941684229144714,-0.0003624784545419848
4,6,1.000937699682046,0.0003614248896846468,-0.0005202099524048146
4,7,1.000937313249329,0.0004333556348284344,-0.0007045643600899366
4,8,1.0009368239845726,0.0005149901946752282,-0.0009179653015466626
4,9,1.0009362509626356,0.0006054590592471949,-0.0011602933714899937
4,10,1.0009355965618356,0.0007020580637713267,-0.0014289824040789746
4,11,1.0009348872122883,0.0008000146444838644,-0.0017177371181148775
4,12,1.000934184047075,0.0008928139746080318,-0.0020162075824932857
4,13,1.0009335866087234,0.0009728178236110621,-0.002309521912798797
4,14,1.0009332382256064,0.001032160309575459,-0.002579256145985209
4,15,1.00093332016158,0.0010637535119535036,-0.002804367700823212
4,16,1.0009340382811063,0.0010621833479158031,-0.0029632670249011357
4,17,1.0009356006212977,0.0010242299004017499,-0.003035223840657821
4,18,1.0009381946769453,0.0009488386982975948,-0.0030020116163777793
4,19,1.0009419680372034,0.0008365773338222801,-0.0028481446856027347
4,20,1.0009470218087915,0.0006888430941546234,-0.0025609404388016992
4,21,1.0009534145744607,0.0005072126160318613,-0.0021294317229586224
4,22,1.0009611726553824,0.00029329529569313274,-0.0015438528858216507
4,23,1.000970288887169,4.9249116024508925e-5,-0.0007950666788254576
4,24,1.0009806968012938,-0.00022116495501437117,0.00012455652341678873
4,25,1.0009922154989173,-0.0005113843453997941,0.001219947508576336
4,26,1.0010044776800668,-0.0008111816714569582,0.0024910680936761497
4,27,1.0010168649057836,-0.0011065275758841712,0.003931229099932219
4,28,1.0010284705768016,-0.0013803488316788553,0.005525488038865776
4,29,1.001038124041047,-0.0016141438367393627,0.007250723147567653
4,30,1.0010444822682385,-0.0017901606991665292,0.009076488892484483
4,31,1.0010461939393098,-0.0018936596167222165,0.010967602811913044
4,32,1.0010420802692148,-0.0019147070730497614,0.012886807620886865
4,33,1.0010313088428313,-0.001849127548390887,0.014798037473488438
4,34,1.0010134928674694,-0.0016984881929504867,0.016668554076187253
4,35,1.0009887345670516,-0.0014692831924472988,0.01847088139622884
4,36,1.0009575759916698,-0.0011716115520356838,0.02018322013086228
4,37,1.0009209264219001,-0.0008177013641082354,0.021789790718927716
4,38,1.0008799352286886,-0.00042053436907359224,0.02327996844967173
4,39,1.0008358955435726,7.250565434994632e-6,0.024647844344363633
4,40,1.0007901233872258,0.00045413185590388155,0.02589093310537949
4,41,1.000743898267768,0.0009101537594542686,0.027009667673294043
4,42,1.000698383002628,0.0013671193568279608,0.028006180744567503
4,43,1.0006546126048517,0.0018185789125056207,0.028884038380999347
4,44,1.000613451000019,0.002259696888327591,0.029647238278208376
4,45,1.000575614152071,0.0026870351119526784,0.030300222819858433
4,46,1.000541646964879,0.0030983124497312793,0.030847061630795293
4,47,1.0005119626653003,0.0034921486947820522,0.031291683914143505
4,48,1.0004868257291553,0.0038678323341490616,0.03163716458834551
4,49,1.0004663949546968,0.004225093828831966,0.03188610404063253
4,50,1.0004507051613403,0.004563918388631764,0.03203994845033812
4,51,1.0004397076601026,0.004884357844651426,0.0320994657138975
4,52,1.000433249427951,0.0051863872156471145,0.032064066785160814
4,53,1.000431109028141,0.0054697407801287115,0.031932352623624635
4,54,1.0004329761169835,0.005733803852771615,0.03170145921419647
4,55,1.0004384833255715,0.00597745963082625,0.031367670431643284
4,56,1.0004471918749933,0.006199021009443223,0.030925894277063447
4,57,1.0004586208237602,0.00639609329090012,0.03037033622228411
4,58,1.0004722463079443,0.006565579070289392,0.02969433608678625
4,59,1.0004875282547072,0.006703593474483912,0.028891041087877253
4,60,1.0005039300376315,0.006805608921202876,0.027953979030201217
4,61,1.0005209375473745,0.006866491410563514,0.026877494863340592
4,62,1.0005381010554657,0.006880866852713114,0.02565855818785744
4,63,1.0005550321260224,0.0068433479400709174,0.024296355302836064
4,64,1.0005714605608846,0.0067491557244054624,0.022795860493594743
4,65,1.0005871864804827,0.006594529219273856,0.021165409567136344
4,66,1.000602143608101,0.0063774997997738895,0.019422479830770254
4,67,1.0006162869688244,0.006098308899346305,0.01758753003648409
4,68,1.000629667176689,0.005760037592436393,0.015692373187869868
4,69,1.000642264473776,0.005368700946744734,0.013768514575531784
4,70,1.0006541086436025,0.004933364624987862,0.01185860077884449
4,71,1.0006650865120237,0.004465636019384557,0.009998408762346336
4,72,1.0006751273790018,0.00397912178995045,0.00823235626188364
4,73,1.0006840228238452,0.0034882209419943963,0.006589820339767195
4,74,1.0006917059029394,0.00300695054291723,0.005105361003133728
4,75,1.0006980806055847,0.002548094593063565,0.0037916479772584473
4,76,1.0007031629785912,0.0021233974493220045,0.002666279841911119
4,77,1.0007068210743992,0.0017418520694602404,0.0017232022996254807
4,78,1.0007092792609946,0.001405443335592063,0.0009607391230653747
4,79,1.0007110346310732,0.001108315307238424,0.00035321310204740276
4,80,1.0007125233956913,0.0008466572694028103,-0.00011087457048056926
4,81,1.0007133893985887,0.0006304979253957162,-0.0004541405636080983
4,82,1.0007131135551182,0.0004849483769364278,-0.0006865502826240831
4,83,1.0007117129986025,0.000437209038791245,-0.0008489313241088625
4,84,1.000709830200587,0.0005010431426147206,-0.0009872262212230506
4,85,1.0007082831799963,0.0006717790457666412,-0.0011725910196459788
4,86,1.00070751063732,0.0009208624931695367,-0.0014506972990321503
4,87,1.0007065242883997,0.001196396119331378,-0.0018513874826132928
4,88,1.0007059981363915,0.0014304421648376042,-0.002351263418401578
4,89,1.0007040983239688,0.0015429726228571084,-0.0028836409188989017
4,90,1.0007038800158286,0.0014641239964455655,-0.003362484576384421
4,91,1.0007032884652425,0.0010970391846672203,-0.003639017701091954
4,92,1.0006949563796022,0.0004817124057198112,-0.0036883480272972163
4,93,1.0007334705801638,-0.00034837576109640037,-0.0036178431539850924
4,94,1.0007090399339889,-0.0018157238447747699,-0.00283521652976668
4,95,1.0006700689549082,-0.003076127080372211,-0.0023910473613325063
4,96,1.0009932775233585,-0.004355043142231323,-0.0020508414398988078
4,97,1.000592932970384,-0.009690322315902083,0.0025430773855973443
4,98,1.0000675012637197,-0.014247984040042584,0.003054633858436324
4,99,1.000901542855774,-0.010632208089959981,-0.0020757989788184085
4,100,1.0012880562190505,-0.001526714053011314,-0.0024793802450605515
4,101,0.9997910927142284,0.05208003524085043,-0.0005518335514576295
5,1,1.0009371134371479,7.236780127629096e-5,-7.743443843769772e-6
5,2,1.0009391263668854,0.00019833071797722643,-5.3373215445278546e-5
5,3,1.0009388420919891,0.00029165150570733015,-0.00013995733030717285
5,4,1.0009385361853145,0.00037034465645641596,-0.00026060596564685823
5,5,1.0009380994383774,0.00044640703417822775,-0.0004098961933893243
5,6,1.0009376631920244,0.0005279774516814342,-0.0005836620246576047
5,7,1.0009373162341613,0.000618092640608049,-0.0007794492629461773
5,8,1.000936915387185,0.0007138544281516943,-0.0009965621778690228
5,9,1.0009364036330366,0.0008091439290216141,-0.0012314350850292585
5,10,1.0009358033130704,0.0008952727006000137,-0.0014763507154670786
5,11,1.0009351224874135,0.0009605804392796384,-0.0017191628792487942
5,12,1.0009343881111525,0.0009912206561836767,-0.0019440309971709541
5,13,1.0009336596498748,0.0009726981618205597,-0.00213172865210294
5,14,1.00093303384614,0.0008916352076423668,-0.0022617573422855585
5,15,1.0009326479410947,0.0007374133945698802,-0.002313865247717933
5,16,1.0009326748841403,0.0005032472679607331,-0.0022703886858102132
5,17,1.000933311149961,0.00018636937364844655,-0.0021168700032649654
5,18,1.0009347676351386,-0.00021270594748871072,-0.0018424542537902296
5,19,1.0009372672109154,-0.0006914906431314026,-0.001438217362999638
5,20,1.0009410571517525,-0.0012467509460064841,-0.000895765268583443
5,21,1.0009464225672517,-0.0018749883361004142,-0.00020513269787306794
5,22,1.0009536816619435,-0.002571789495856062,0.0006453145282088907
5,23,1.0009631354270256,-0.0033301838190153204,0.0016682245992219998
5,24,1.0009749642433667,-0.004138628791118649,0.002874108286816773
5,25,1.000989093401082,-0.004979483869376207,0.0042681747887919385
5,26,1.0010050583054932,-0.005828676171589438,0.005846341482636223
5,27,1.0010219234565831,-0.006656915177691341,0.0075933363983814815
5,28,1.0010382817060621,-0.007432365310020439,0.009481801524504408
5,29,1.001052383765297,-0.008124276952791883,0.011474626638621189
5,30,1.0010623497021973,-0.008706707955259192,0.01352809206427575
5,31,1.001066448894861,-0.009161442842693168,0.015596955889865486
5,32,1.0010633225915986,-0.009479469419946304,0.017638225393984772
5,33,1.0010521635995413,-0.009660891573962866,0.019615045173372037
5,34,1.0010327470993805,-0.00971354782864323,0.021497948235151672
5,35,1.0010054241405872,-0.00965089224627786,0.02326601461268709
5,36,1.0009709866785608,-0.00948966231814171,0.024905650682229486
5,37,1.000930577394975,-0.009247780312954191,0.026410152571845202