TITLE="CMs_NON_Orthogonal Re = 10000.0"
VARIABLES = X,Y,Rho,U,V
ZONE
I = 101	J = 101
F=POINT
1,1,1.0009890831439936,2.2413246297870845e-6,-2.9024175877884834e-6
1,2,1.0009902078149988,5.95720124286534e-6,-1.8645038591498014e-5
1,3,1.0009901321713601,6.303292918799213e-6,-3.892554546190655e-5
1,4,1.000990413945041,7.274319166346809e-6,-6.222187961408993e-5
1,5,1.0009907259637205,8.36980462985874e-6,-9.009330026578261e-5
1,6,1.0009910531842667,9.343391202585278e-6,-0.00012356567793392396
1,7,1.0009914200122287,1.0003532921736385e-5,-0.00016345799602597003
1,8,1.0009918414991168,1.0085598164211379e-5,-0.00021085565119785042
1,9,1.0009923107814993,9.165250033452447e-6,-0.0002668107724288902
1,10,1.0009928122116951,6.627763461029636e-6,-0.0003324600165923181
1,11,1.0009933213275324,1.661140161913069e-6,-0.0004085810666127414
1,12,1.0009938147586686,-6.750577936905697e-6,-0.0004956283095706339
1,13,1.0009942800259637,-1.9816576248145427e-5,-0.0005932460711346921
1,14,1.0009947311678569,-3.890281336594532e-5,-0.0007002586726044223
1,15,1.000995226087698,-6.547366897536924e-5,-0.0008142363837304606
1,16,1.0009958840141056,-0.00010099616807674173,-0.0009315659796837191
1,17,1.0009968948061079,-0.00014683453922816018,-0.0010472205589513329
1,18,1.0009985162392085,-0.00020413305883518358,-0.0011550289036487958
1,19,1.0010010532100522,-0.00027372513863551626,-0.0012477015347963332
1,20,1.0010048226133694,-0.00035605723466704584,-0.0013172490811093002
1,21,1.0010101058608676,-0.00045114877776235014,-0.0013551450145761635
1,22,1.0010170983599496,-0.0005585620895745021,-0.0013527634301841623
1,23,1.0010258592719954,-0.0006773943411680766,-0.0013015994324055515
1,24,1.001036268738614,-0.0008062719418986263,-0.00119374566461778
1,25,1.0010479929591045,-0.0009433674434251058,-0.0010222568570290803
1,26,1.0010604620957375,-0.0010864352830772589,-0.0007817692829226648
1,27,1.0010728639409965,-0.001232889163843832,-0.00046901778088225535
1,28,1.0010841650707085,-0.0013799136459881687,-8.345977133550582e-5
1,29,1.0010931668231515,-0.0015246125656167195,0.0003723567850839954
1,30,1.0010985974961146,-0.0016641726017064022,0.0008925337351128539
1,31,1.0010992287112153,-0.0017960433434967493,0.0014679484669703423
1,32,1.0010940018621208,-0.0019181165544784873,0.0020866077373200035
1,33,1.0010821453985164,-0.002028870245852488,0.0027344182730722495
1,34,1.001063264454273,-0.0021274196068055357,0.0033960929846762675
1,35,1.0010373859108408,-0.002213473997718005,0.004056174895671896
1,36,1.0010049534069179,-0.002287225947604751,0.0046998880411939494
1,37,1.0009667758005703,-0.0023492174247426558,0.005313863690405893
1,38,1.000923943171954,-0.0024002052039456133,0.005886577784831508
1,39,1.000877726051728,-0.0024410473201502514,0.006408619392139225
1,40,1.0008294755394742,-0.002472611676728731,0.006872712101810671
1,41,1.000780534586643,-0.002495713845980584,0.007273633939799893
1,42,1.0007321694936473,-0.002511075923803451,0.007607996556434201
1,43,1.0006855206731262,-0.0025193079858550106,0.007874008397874596
1,44,1.0006415748547832,-0.002520901886146582,0.008071192437677174
1,45,1.0006011505915349,-0.002516238520992198,0.008200138237564216
1,46,1.0005648988953617,-0.002505599311259591,0.008262269735734526
1,47,1.0005333073600173,-0.002489184466265524,0.008259654958064935
1,48,1.0005067140321626,-0.002467130352765144,0.008194868923842273
1,49,1.0004853161782057,-0.0024395303135574115,0.008070872059327742
1,50,1.0004691876500098,-0.0024064518219131005,0.0078909752391223
1,51,1.0004582843187215,-0.002367956485963132,0.007658764986737608
1,52,1.0004524616427692,-0.0023241139017774544,0.007378164610974179
1,53,1.0004514737688135,-0.002275020429853718,0.007053363632769894
1,54,1.000454992872594,-0.0022208065376850272,0.006688972050551274
1,55,1.0004626018300886,-0.002161656110545646,0.006289888109490822
1,56,1.000473820051735,-0.002097800824183677,0.005861560321507154
1,57,1.0004880907109905,-0.0020295457863038564,0.005409687516613771
1,58,1.0005048194268928,-0.0019572373520457135,0.00494064792126899
1,59,1.000523356394205,-0.0018813110632504792,0.004460851125673913
1,60,1.000543053996638,-0.0018022055114843762,0.003977499584803758
1,61,1.0005632418321118,-0.0017204711002889366,0.003497271879231761
1,62,1.0005833061430194,-0.0016365774422591104,0.0030278145762175426
1,63,1.000602651692242,-0.0015511607116116208,0.002575168942646955
1,64,1.0006208007247193,-0.0014646319391639197,0.0021468340010438046
1,65,1.0006373326395206,-0.0013776892457132326,0.00174687802017966
1,66,1.0006519902777082,-0.0012906113330153793,0.0013820852566599228
1,67,1.000664591739965,-0.0012041274644941954,0.0010531084431715388
1,68,1.00067513751367,-0.0011183795661111715,0.000765684087242963
1,69,1.0006836862120627,-0.0010341022400120045,0.0005161298570526835
1,70,1.0006904288438931,-0.0009514000845791603,0.0003091816171123595
1,71,1.0006955900104515,-0.000870876773129705,0.00013698707171953074
1,72,1.0006995224604376,-0.0007927028857823363,3.4037033807294738e-6
1,73,1.0007024797376907,-0.0007175670740330028,-0.00010224902158429042
1,74,1.0007046464687004,-0.0006456567875526857,-0.0001758812038638889
1,75,1.0007062855181934,-0.0005772104800766902,-0.000229692920811764
1,76,1.0007078403363576,-0.000512432677969791,-0.0002597140717398073
1,77,1.000709442862375,-0.0004521779714838071,-0.00027814856790870664
1,78,1.0007108272182517,-0.00039699782674832015,-0.0002778807937506726
1,79,1.000711751610943,-0.000346972306658142,-0.00026888115642292946
1,80,1.0007124433131893,-0.0003013119450602214,-0.00024336626157003496
1,81,1.000713301139191,-0.0002592811418851909,-0.00021428836871596356
1,82,1.0007146104259972,-0.00021998870467666178,-0.00017625338173544872
1,83,1.0007163436579405,-0.00018298867089238465,-0.0001447738592458934
1,84,1.0007183863932496,-0.0001477092432727979,-0.00011459622543566571
1,85,1.0007206267689677,-0.00011446908056204429,-0.00010223032160606237
1,86,1.0007228236335621,-8.329746400002333e-5,-0.00010126466778208067
1,87,1.0007250266582852,-5.615633782664008e-5,-0.00012769866800083787
1,88,1.0007267024513322,-3.442321976768711e-5,-0.00016842687699821643
1,89,1.0007278817757865,-2.0003436727111077e-5,-0.00023172594804294684
1,90,1.0007283620598328,-1.697499688632389e-5,-0.0002886139140336955
1,91,1.0007280649122559,-2.0796042636117637e-5,-0.0003329321389251376
1,92,1.0007368677496034,-5.2029369734974075e-5,-0.00031018573463866694
1,93,1.0007403289884227,-0.00011315369918506327,-0.00015079405461681302
1,94,1.000741862294808,-0.00019563944767672726,0.00023075005431401463
1,95,1.0007417189938872,-0.0002860822274099724,0.0008838757466309414
1,96,1.0008030332419975,-0.00025924167524383476,0.0016618339404811636
1,97,1.0009916721230776,-0.0010205911581051023,0.0033579753340565615
1,98,1.0003038220226275,-0.001087812397840608,0.006560001023330164
1,99,1.0007691314181755,0.0005640542703713883,0.007651896830791121
1,100,1.0019464557581095,-0.007687038657803842,0.01641154362133908
1,101,0.9965280832836244,0.026527229351915878,0.01399847943449222
2,1,1.0009877611712015,1.875514222010463e-5,-5.999158202203103e-6
2,2,1.0009888582130346,4.061803791357911e-5,-3.7741281846263074e-5
2,3,1.0009882478170822,4.840890010742583e-5,-8.824492601676626e-5
2,4,1.0009880942909097,5.75095961397887e-5,-0.0001499344347297504
2,5,1.000987895327435,6.993787288063071e-5,-0.0002245433716872355
2,6,1.0009875789997982,8.472496141963603e-5,-0.0003152871969392623
2,7,1.0009871956271852,0.00010221230826103584,-0.000424458604845917
2,8,1.0009867268351424,0.0001230251435070833,-0.0005547890888648599
2,9,1.0009861496667813,0.0001476019038980962,-0.0007089800335214971
2,10,1.0009854421003515,0.0001760980562798026,-0.0008894414121640782
2,11,1.0009845989849562,0.00020831066210400567,-0.0010974128294460584
2,12,1.0009836445307119,0.00024363175687074675,-0.0013325369288511137
2,13,1.0009826510150954,0.0002810276904230081,-0.0015919759255497371
2,14,1.0009817558841854,0.00031908628167744575,-0.0018701081190842012
2,15,1.0009811774969088,0.00035613357702275,-0.002158000021549462
2,16,1.0009812178742152,0.00039040968394927236,-0.002443635887098399
2,17,1.0009822523797955,0.0004202682711970644,-0.002712085279327525
2,18,1.0009846984557769,0.0004443388498677937,-0.002946364154502645
2,19,1.0009889732008133,0.00046160889184164173,-0.0031280804184997085
2,20,1.0009954410554964,0.0004714145402107911,-0.0032384301778717877
2,21,1.0010043659985866,0.0004733813013975753,-0.0032587458088720474
2,22,1.0010158674517375,0.0004673810143929821,-0.0031712193982705848
2,23,1.0010298873048915,0.0004535766214544772,-0.002959288629451714
2,24,1.001046159464635,0.0004325825698774499,-0.002608383524541483
2,25,1.0010641854172269,0.0004057110560691212,-0.0021066298648039503
2,26,1.0010832117195503,0.0003752083583885974,-0.0014460012696849483
2,27,1.0011022268894205,0.00034436861707472043,-0.0006233451144151878
2,28,1.0011199852958041,0.00031744306510791807,0.0003585179799441805
2,29,1.0011350729492732,0.00029933258083351103,0.0014902442295430865
2,30,1.001146006006487,0.0002950994791696805,0.0027557899699387368
2,31,1.001151362693355,0.000309373761757296,0.00413305273733075
2,32,1.0011499244975015,0.000345763538739872,0.005594998505234126
2,33,1.0011408123228929,0.00040640424624647007,0.007111426054135502
2,34,1.0011235807581924,0.0004917469969257595,0.00865082420735119
2,35,1.0010982639020143,0.0006006125389888568,0.010182288253529096
2,36,1.0010653553968971,0.0007304600171454184,0.011677014443760134
2,37,1.0010257452761138,0.0008777826954540789,0.01310946498841347
2,38,1.0009806159564099,0.0010385362524013874,0.014457964885685277
2,39,1.000931333998049,0.0012085282912461827,0.01570496212808861
2,40,1.00087933709429,0.0013837244377030307,0.0168368780122307
2,41,1.0008260476592135,0.0015604581118096104,0.01784378570956602
2,42,1.0007727975029161,0.0017355467636907195,0.018718912945559503
2,43,1.000720787636066,0.0019063336244056397,0.019458110482461214
2,44,1.0006710553217737,0.0020706709172189585,0.020059334543663373
2,45,1.0006244722046473,0.0022268686797898276,0.02052213330927612
2,46,1.0005817379766837,0.002373618609656972,0.020847288799111525
2,47,1.000543399800604,0.0025099140369597467,0.02103640106964379
2,48,1.0005098551933802,0.0026349629669059488,0.021091765790313747
2,49,1.0004813796864718,0.00274811524838229,0.02101604013715594
2,50,1.0004581270245951,0.002848786959665599,0.020812392728568486
2,51,1.0004401591100147,0.002936410885824664,0.020484181597781235
2,52,1.000427436872088,0.0030103794784928366,0.020035419628705906
2,53,1.0004198524427843,0.003070027330650159,0.01947035401443947
2,54,1.000417206832432,0.0031145953367632956,0.018794321711306832
2,55,1.000419248576656,0.00314325484060466,0.018013064037830897
2,56,1.0004256349494038,0.0031550957247641807,0.01713408947368219
2,57,1.0004359849646816,0.003149204863930658,0.016165466964618923
2,58,1.0004498201296415,0.0031246790090820077,0.015117864021661634
2,59,1.0004666434519378,0.003080767366913827,0.014002430764825506
2,60,1.0004858542319146,0.003016900487838896,0.012833749276972055
2,61,1.0005068682127918,0.002932890498958957,0.011626261703254585
2,62,1.0005289986142472,0.0028289465029273926,0.010398480064689273
2,63,1.0005516335925233,0.002705896635368002,0.00916726923852607
2,64,1.0005740722289997,0.002565141788967915,0.007953863272453078
2,65,1.0005957706556072,0.002408822054463188,0.006775251724811142
2,66,1.0006161185661517,0.002239663149098928,0.005652835918398539
2,67,1.0006347524764465,0.0020610369184003866,0.004600246462850578
2,68,1.0006512585956466,0.0018766649651993416,0.0036356947396003654
2,69,1.0006655413643888,0.0016904970124413607,0.0027658532109007534
2,70,1.0006774450075389,0.001506418169668393,0.0020028399103813378
2,71,1.000687137240196,0.0013282154333030642,0.001344223442502568
2,72,1.0006946955295966,0.0011590074352105604,0.0007948089332111437
2,73,1.0007005406810754,0.001000912756568693,0.0003433261942159645
2,74,1.0007048402366117,0.0008554744750498992,-1.0995527034608823e-5
2,75,1.0007079223096786,0.0007245046165866754,-0.00028514734321665656
2,76,1.0007100520311194,0.0006087273202232758,-0.0004837132611818043
2,77,1.0007119288558404,0.0005060045351879471,-0.0006273920877782905
2,78,1.0007136658157485,0.00041273387226948357,-0.0007181532137732071
2,79,1.0007150803567548,0.0003278013648622387,-0.0007704907078085987
2,80,1.0007156999709272,0.00025393515897406026,-0.0007815535255878641
2,81,1.0007157729303597,0.00019517264304611684,-0.0007710389685182974
2,82,1.0007155411444395,0.0001544077808213466,-0.0007471983221235997
2,83,1.0007154335059312,0.0001327801716514626,-0.0007421486943030531
2,84,1.000715149526754,0.00013005986698457975,-0.0007702220976685429
2,85,1.0007146086141179,0.00014602118279549882,-0.0008655869878940342
2,86,1.000713394946654,0.00017812889624006263,-0.001038530206037726
2,87,1.0007111418083603,0.00022085767862372842,-0.0013138717317173977
2,88,1.000708238701713,0.00026235982517860924,-0.001682048656528728
2,89,1.0007041392283618,0.0002856245507521496,-0.0021350134455174895
2,90,1.0007006251411235,0.00027444345353863035,-0.002626387711358052
2,91,1.0007006496954913,0.00019311894511535286,-0.0030914821687784404
2,92,1.0007053555482028,9.592761213767906e-6,-0.0034256741853328568
2,93,1.0007314724566743,-0.000365669804829035,-0.0035043712082003177
2,94,1.0007427726938753,-0.0008522947303685104,-0.0031367444846352897
2,95,1.0008035185685207,-0.0012113654695999742,-0.002467733880353568
2,96,1.0008709742416515,-0.0023558146992362873,-0.0006876777940212041
2,97,1.0007745108488904,-0.0038479732046506803,0.0018010723525457737
2,98,1.001533088038796,-0.004628085926749199,0.003857100682543683
2,99,1.0004349640884778,-0.010857942144228649,0.01614244048514406
2,100,0.9996394358631504,-0.012220072270878934,0.021795248625777874
2,101,1.0037900657735999,0.05153397365757361,0.005626833996999559
3,1,1.0009878031010206,3.481680888021256e-5,-5.8488144915760366e-6
3,2,1.0009895059855392,8.724301924916543e-5,-4.1290968198192544e-5
3,3,1.0009889882058687,0.00011486059833216643,-0.00010712507655601481
3,4,1.0009885346029215,0.00013898501453104843,-0.00019645859913323504
3,5,1.000988256488341,0.00016819821291135095,-0.0003057439853904077
3,6,1.000987931033509,0.00020238001597608785,-0.00043755971469141945
3,7,1.0009874956717764,0.00024088863640415943,-0.0005954539556127611
3,8,1.0009869695024252,0.0002837733698307343,-0.0007823352939472398
3,9,1.0009863239271508,0.0003301776959341153,-0.0010004564936747379
3,10,1.0009855438047772,0.0003778336813375454,-0.001250835889050088
3,11,1.000984641112119,0.00042300672196724767,-0.0015319149015009573
3,12,1.0009836655300601,0.00046051351149831984,-0.0018389384102803369
3,13,1.0009827193739265,0.0004839340182421819,-0.0021630192093569952
3,14,1.0009819690053756,0.00048604678415197275,-0.002491191619051642
3,15,1.0009816490310164,0.00045948478925275914,-0.002806488941533369
3,16,1.000982053516596,0.0003975044920541753,-0.0030891097243022705
3,17,1.0009835125908657,0.00029468913521419373,-0.0033175074761570005
3,18,1.000986358558121,0.00014740115099321494,-0.003470079410783892
3,19,1.0009908872271573,-4.6112341965524204e-5,-0.003526177107657377
3,20,1.000997325131249,-0.0002859026146386773,-0.0034670941051700654
3,21,1.001005806111324,-0.0005706073488456733,-0.0032761323696932207
3,22,1.0010163588363674,-0.0008976158533771158,-0.0029387669341244243
3,23,1.001028895222127,-0.0012629584935190188,-0.002442454675757936
3,24,1.0010431903951462,-0.001660923290498733,-0.0017771676751437942
3,25,1.0010588468614503,-0.0020835833984065503,-0.0009360613498698591
3,26,1.0010752517548829,-0.0025205138364975755,8.313431704221854e-5
3,27,1.0010915459192264,-0.002958935326158273,0.0012769894062951688
3,28,1.0011066227579795,-0.0033843696520361516,0.002635227511017822
3,29,1.0011191721212607,-0.0037817469679890334,0.004140531939464549
3,30,1.001127774231603,-0.004136793946837313,0.005768888568147539
3,31,1.0011310431851403,-0.0044374516034028574,0.007491098658154743
3,32,1.0011277889687487,-0.004675025182309503,0.009274633622185934
3,33,1.0011171696769892,-0.004844830469080105,0.011086066239455078
3,34,1.0010987905667559,-0.004946237458470976,0.012893069915763646
3,35,1.001072744503511,-0.004982182554965787,0.014666285608879868
3,36,1.0010395787955604,-0.004958324119501775,0.016380289723350417
3,37,1.0010002208555395,-0.004882059233599659,0.018014272724329712
3,38,1.0009558643371972,-0.004761579813522788,0.019551902307554866
3,39,1.0009078603169677,-0.004605092364321616,0.02098114090248276
3,40,1.000857604401126,-0.004420247711837196,0.022293524253449333
3,41,1.0008064578503761,-0.004213787422772849,0.023483661698079247
3,42,1.0007556759365983,-0.003991369807702823,0.024548397866022535
3,43,1.000706375941364,-0.0037575408107045983,0.02548634358562542
3,44,1.0006595065505186,-0.0035157974487290376,0.026297155576327804
3,45,1.0006158509755898,-0.003268717353875511,0.026981227540615646
3,46,1.0005760211316768,-0.0030181130907467146,0.027539153455892588
3,47,1.0005404780142957,-0.002765206463439257,0.02797158235477034
3,48,1.0005095356345006,-0.0025107919328738928,0.02827885935272597
3,49,1.0004833856502648,-0.002255404506454748,0.02846100116286417
3,50,1.00046210290374,-0.001999461953460685,0.028517505935602747
3,51,1.0004456677290725,-0.0017434135640284562,0.028447400615627345
3,52,1.0004339711222159,-0.0014878549315742043,0.028249245064410518
3,53,1.0004268324450916,-0.0012336575431924777,0.027921204941994616
3,54,1.0004240061074487,-0.0009820514117926719,0.02746132948212065
3,55,1.0004251940255058,-0.0007347295498069462,0.026867590347408214
3,56,1.0004300572902984,-0.0004938805115463645,0.026138574427399374
3,57,1.000438221991847,-0.0002622451119957279,0.025273374429160337
3,58,1.00044929893731,-4.306202701607245e-5,0.024272893451940423
3,59,1.0004628789119099,0.0001599622647165151,0.02313934587712963
3,60,1.0004785616381393,0.00034284152001012316,0.021878398278406683
3,61,1.0004959338725916,0.000501461983473237,0.020497817225262206
3,62,1.0005146074065783,0.0006319273943607631,0.019010659201109312
3,63,1.0005341748009209,0.0007308234227359344,0.017432311287349404
3,64,1.0005542571735349,0.0007956693923899629,0.015784926252639126
3,65,1.0005744410737838,0.0008251842979235521,0.014091874339350339
3,66,1.0005943427383985,0.0008196915019346142,0.012383686751620736
3,67,1.0006135416958128,0.0007812093385590861,0.0106890005459672
3,68,1.0006316587960997,0.0007135707188968786,0.00904254974309879
3,69,1.0006483163510584,0.0006221274671090882,0.007472181260844812
3,70,1.0006632228670473,0.0005135158114229427,0.006009723357379802
3,71,1.0006761490028486,0.0003951579880107246,0.004674613683842369
3,72,1.000686956881651,0.00027457536097180214,0.0034886411188354196
3,73,1.0006956578942638,0.0001582980943824826,0.002456943794102493
3,74,1.0007024127572541,5.1637779918413435e-5,0.001587034937417404
3,75,1.0007074227449961,-4.0297237825728204e-5,0.0008692174458646551
3,76,1.000710806143344,-0.00011320711147896624,0.0002989793349598255
3,77,1.0007129893952103,-0.00016759706103390586,-0.00014582139799031255
3,78,1.0007145993336606,-0.00021000048398520723,-0.00047861671686883406
3,79,1.0007159388756395,-0.00024600020919606706,-0.0007222541631651028
3,80,1.000716572871614,-0.00027179985017982105,-0.0008824573754024791
3,81,1.000716072959251,-0.00027458347590181823,-0.0009803058960535498
3,82,1.000714546237919,-0.00023987107818558041,-0.0010358419317770024
3,83,1.0007125373892753,-0.00015834017157279656,-0.001096246631770702
3,84,1.000710425012652,-2.797686034476926e-5,-0.0012036360495967014
3,85,1.0007082116960517,0.0001471512694939929,-0.0014112983251230522
3,86,1.0007055561326954,0.0003558323301111323,-0.0017496078247081937
3,87,1.0007023346126525,0.0005734028949894678,-0.0022419310891988657
3,88,1.0006974764475618,0.0007666358836222795,-0.0028693172392261633
3,89,1.0006928953353342,0.0008928524549878657,-0.0036010864605497323
3,90,1.0006882919814364,0.0008963347522810157,-0.004340928313082078
3,91,1.0006858505647604,0.0007373617422703373,-0.005003878514086814
3,92,1.0006899922957555,0.0003180530758092911,-0.005437365282581106
3,93,1.0006842724794016,-0.00034316572683949087,-0.005585072426946405
3,94,1.000741998834981,-0.001153045646692641,-0.005574061782872581
3,95,1.000750469469477,-0.0025334691172622012,-0.0045635397548435186
3,96,1.0006223894565829,-0.0037094981977667334,-0.003480429010497553
3,97,1.0010762296936082,-0.005407317915180708,-0.0030273781138732596
3,98,1.0007015694535961,-0.012503710582742031,0.003535949220990488
3,99,0.9995338142249787,-0.01702060411245865,0.005908332290471388
3,100,1.0005993284734631,-0.0027497930495088336,-0.0006370526986092303
3,101,1.0005216164056785,0.05519264564280154,-0.0019261017912032834
4,1,1.0009874106765908,5.552187036603215e-5,-7.100237297478146e-6
4,2,1.0009893269174501,0.00014438161543644927,-4.8430667624567625e-5
4,3,1.0009890558904813,0.000203655536959886,-0.00012646839621263035
4,4,1.0009886303673612,0.00025370736213010595,-0.000236407917631978
4,5,1.000988190731717,0.0003067960731535667,-0.0003728787751380478
4,6,1.000987892433427,0.00036816109064353493,-0.0005336670709640719
4,7,1.0009875658134,0.00043825451520245156,-0.0007207501718296708
4,8,1.0009871474152887,0.0005163600879978479,-0.0009361116660467066
4,9,1.000986662154708,0.0006008859948654562,-0.0011790318670193492
4,10,1.0009861142653151,0.0006881324438351727,-0.0014461982557225101
4,11,1.000985534394823,0.0007721679901352305,-0.0017304216368090538
4,12,1.0009849906689592,0.0008452343626444589,-0.002020328458342749
4,13,1.0009845908492576,0.0008984378529820182,-0.0023000020663448448
4,14,1.0009844872913563,0.0009227837279776565,-0.0025500615989940364
4,15,1.0009848708139442,0.0009103703465938196,-0.0027487578725655065
4,16,1.0009859563705967,0.00085544942080205,-0.0028741697193299326
4,17,1.0009879586203474,0.0007550157404725747,-0.0029056926793188005
4,18,1.0009910669170923,0.0006087210470318849,-0.0028256173248329504
4,19,1.0009954250449429,0.0004181732305445273,-0.0026191858186151054
4,20,1.0010011259933955,0.00018596641398386046,-0.002274379084084863
4,21,1.0010082186898157,-8.50660108714387e-5,-0.0017806193874095818
4,22,1.0010167181010305,-0.00039195321909252424,-0.0011282122121201161
4,23,1.0010265970400003,-0.0007309130110082295,-0.00030798379866045587
4,24,1.0010377458357156,-0.001096143332971455,0.0006874567750982294
4,25,1.001049902495267,-0.001478611295752769,0.0018621169736134815
4,26,1.0010625735389702,-0.001865390689215066,0.003214109783889678
4,27,1.0010749764028264,-0.0022399035559511576,0.004734007044116552
4,28,1.0010860244651407,-0.0025831269330437853,0.006403573666143558
4,29,1.0010943872501366,-0.002875585124583906,0.008196390773513397
4,30,1.0010986195149312,-0.0030997022874600677,0.010079299479425357
4,31,1.0010973521186977,-0.003241970404307946,0.012015431111163972
4,32,1.0010894766252922,-0.0032944179216642462,0.013967044936839762
4,33,1.0010743037002494,-0.003255121278081119,0.015898704945248573
4,34,1.0010516317875537,-0.003127771279349388,0.0177791320738375
4,35,1.001021759881926,-0.0029205575236551616,0.019582786803181377
4,36,1.0009854109882388,-0.00264470193400962,0.021289950447896104
4,37,1.0009436450636833,-0.0023129760778331505,0.02288682148169529
4,38,1.000897723864734,-0.0019384118960929252,0.02436449590074729
4,39,1.0008490175645162,-0.0015333336325173755,0.025718458887310176
4,40,1.000798887301513,-0.0011087175445025378,0.026947283987968713
4,41,1.0007486353891364,-0.0006738582630069732,0.028052152214985897
4,42,1.0006994302527827,-0.000236263739873399,0.029035685048540916
4,43,1.0006523044177025,0.00019827562265614573,0.029901721905263107
4,44,1.0006081135496376,0.0006255201061739759,0.030654380707756536
4,45,1.0005675660446078,0.0010425511668653378,0.03129809830613525
4,46,1.000531198930764,0.0014475290076164681,0.031836870187769026
4,47,1.0004994216559588,0.0018394452386356615,0.03227448166152686
4,48,1.0004724955817532,0.002217898571789603,0.03261384624629009
4,49,1.0004505805844852,0.0025828817421516617,0.032857353260696553
4,50,1.0004337116712176,0.0029345985247596937,0.03300623959044931
4,51,1.0004218430557457,0.0032732858197711155,0.03306100342241131
4,52,1.000414820854978,0.0035990630128234905,0.03302077718559112
4,53,1.0004124234511624,0.00391177179520686,0.03288378874519011
4,54,1.0004143329598925,0.004210844296282574,0.032646751239113966
4,55,1.0004201733203593,0.004495147467032778,0.03230538865780941
4,56,1.0004294859518363,0.004762871895544355,0.03185392953452391
4,57,1.0004417685001583,0.005011390352317079,0.03128574822929847
4,58,1.000456461784817,0.005237202473800716,0.03059314690605615
4,59,1.0004729916252215,0.005435856674543123,0.02976816998713703
4,60,1.0004907731324195,0.005602030412885992,0.02880295758873142
4,61,1.0005092531220587,0.005729607663490525,0.027690701908226676
4,62,1.0005279316062778,0.005812003326799504,0.026426884377483112
4,63,1.0005463914602377,0.005842494559286452,0.02501006318034596
4,64,1.0005643254672447,0.005814852108276564,0.02344417758232087
4,65,1.0005815296217233,0.005723929110573803,0.021738352035626518
4,66,1.0005979204423345,0.005566498261846406,0.019910154210682835
4,67,1.0006134699077405,0.005341879807788998,0.01798308283929166
4,68,1.0006282158164481,0.0050526285932445325,0.015990451336472675
4,69,1.0006421548913966,0.004704774733155081,0.013969163603962604
4,70,1.0006552843338987,0.0043078970941485915,0.011964081325976447
4,71,1.0006674841450396,0.0038746130085280136,0.010017691108184925
4,72,1.0006786233724492,0.0034198255743196613,0.008175718054194524
4,73,1.0006884817646342,0.0029592955648324896,0.006473639898729078
4,74,1.0006969601967832,0.002508272657776058,0.004944459367048095
4,75,1.0007039773202995,0.0020808231177611306,0.003604972367526012
4,76,1.0007094861544643,0.0016897852106097042,0.002468398370191882
4,77,1.0007133789111997,0.0013436964693177337,0.0015304691822007538
4,78,1.0007160284374286,0.0010418228434254612,0.0007812664113508003
4,79,1.0007180847606436,0.0007763202081986847,0.0001959914850286944
4,80,1.000719827798868,0.00054598162747426,-0.0002419734003997295
4,81,1.000720685166086,0.0003670379907603783,-0.0005513249666669929
4,82,1.0007201676987416,0.0002689608061657945,-0.0007513473236213191
4,83,1.0007185910584941,0.00027791383393086915,-0.0008879620085261799
4,84,1.0007167761087,0.0004026266414897373,-0.0010210040519129842
4,85,1.0007154756668137,0.0006325319655117403,-0.001221541204287284
4,86,1.0007148393544751,0.0009339763657633883,-0.0015371058270059038
4,87,1.0007137628012837,0.0012518202262292695,-0.0019858516621072114
4,88,1.000712879650173,0.0015142954923637968,-0.002538303180452021
4,89,1.0007104431639133,0.0016352189404920225,-0.003112876664174356
4,90,1.0007096893567045,0.0015392832562361961,-0.0036165703160212295
4,91,1.0007085613019677,0.001131627456754165,-0.00388932123330959
4,92,1.0007002905736682,0.00046427126741432667,-0.003912645089070105
4,93,1.0007391680096953,-0.00041756718293155205,-0.00379322421149181
4,94,1.0007151899779336,-0.0019246803008523702,-0.0029591888674353655
4,95,1.0006774427932508,-0.0032133604976380377,-0.0024733923565103838
4,96,1.001001677145631,-0.004533860830444577,-0.00208877458746914
4,97,1.0006007979794074,-0.009878987808056428,0.002514863474869301
4,98,1.0000735707107182,-0.014391187798624075,0.0030113782764986737
4,99,1.0009106621248989,-0.010726607976199646,-0.0020924136642203133
4,100,1.0012993020538365,-0.0015527795156771741,-0.002477529024882906
4,101,0.9997995349102612,0.05208270214786115,-0.0005523868882063715
5,1,1.0009870837621915,7.713990633416746e-5,-8.04048790981222e-6
5,2,1.0009891810901268,0.0002081846878588285,-5.52013676797441e-5
5,3,1.0009888799857665,0.0003032905515042257,-0.00014393437092581943
5,4,1.0009886009560516,0.00038341410697903094,-0.0002669046391743399
5,5,1.0009882046409342,0.00046101042935458284,-0.0004185136508714329
5,6,1.000987823096755,0.000543991789594395,-0.0005941742168745838
5,7,1.0009875521193305,0.0006353454461190201,-0.0007908625458001716
5,8,1.0009872465325242,0.0007322040696486904,-0.0010072501463437005
5,9,1.0009868562818192,0.0008284916950848261,-0.0012389816724057206
5,10,1.0009864143914358,0.0009155676756535424,-0.001477425592303037
5,11,1.0009859375690082,0.000981890055202527,-0.0017095072896579726
5,12,1.0009854629328214,0.0010138886593169692,-0.001918529096971978
5,13,1.0009850598461094,0.0009975560744942187,-0.0020846128147985507
5,14,1.0009848313364533,0.0009202680933965135,-0.002186950816491376
5,15,1.0009849144603316,0.0007724663040895218,-0.002205405618025472
5,16,1.0009854728280214,0.0005486795715150576,-0.002122812201378851
5,17,1.0009866821094668,0.0002475145034664781,-0.0019254020155675606
5,18,1.0009887210882127,-0.00012938238589278346,-0.0016028680288926068
5,19,1.0009917729138034,-0.0005789218304554006,-0.0011463255634481708
5,20,1.000996043262701,-0.0010979210547242752,-0.0005467025241385271
5,21,1.001001776066963,-0.0016834348262375885,0.00020724419227622506
5,22,1.0010092417010759,-0.0023317148061715288,0.001128501620005616
5,23,1.0010186713122629,-0.0030361166663054923,0.002230378335964605
5,24,1.0010301382191988,-0.0037848122784337954,0.0035226114744772254
5,25,1.0010434211601185,-0.004559320812958072,0.005007836463199873
5,26,1.0010578840518913,-0.005334550107594493,0.006677743825036166
5,27,1.0010724288472648,-0.006080564648993635,0.008511881431193117
5,28,1.0010855384872464,-0.006765774724068618,0.010477754437804758
5,29,1.00109544871236,-0.007360839589949795,0.01253418766795737
5,30,1.0011003771382763,-0.007842299858205126,0.014635134392020369
5,31,1.0010987936930567,-0.008195093472852251,0.01673497994357077
5,32,1.0010896045281712,-0.00841347830032132,0.018792027117332338
5,33,1.0010722873226021,-0.008500436186721284,0.02077187091234077
5,34,1.0010468769246619,-0.008465955796870298,0.022648013658379134
5,35,1.0010139339868964,-0.008324794107288523,0.02440254035306196
5,36,1.0009743946143443,-0.008094200219197312,0.026024519343509755