TITLE="CMs_NON_Orthogonal Re = 10000.0"
VARIABLES = X,Y,Rho,U,V
ZONE
I = 101	J = 101
F=POINT
1,1,1.0009822683347795,1.8197569228459154e-6,-2.778389671479025e-6
1,2,1.0009833443180538,5.424036105702991e-6,-1.793207770601824e-5
1,3,1.0009832713598534,5.754392737256705e-6,-3.767730207298799e-5
1,4,1.0009835147213606,6.548335022065952e-6,-6.049369872677655e-5
1,5,1.0009837720620942,7.3457366548218464e-6,-8.784471899622971e-5
1,6,1.0009840310978648,7.850169747917185e-6,-0.00012079593971977782
1,7,1.0009843151257398,7.765821026314224e-6,-0.00016020034371166576
1,8,1.0009846371391191,6.687572190173547e-6,-0.0002071749864581828
1,9,1.0009849897044372,4.008258147372207e-6,-0.00026280256699582916
1,10,1.0009853565290785,-1.1156365267324295e-6,-0.0003282781507750189
1,11,1.0009857117574752,-9.771568645073834e-6,-0.000404458528728021
1,12,1.000986030404872,-2.3289626734080852e-5,-0.0004919152704564072
1,13,1.000986298482137,-4.322199199766312e-5,-0.0005904502333049864
1,14,1.000986528254236,-7.129384411738833e-5,-0.0006991059445004402
1,15,1.000986774738452,-0.00010933094690291159,-0.0008157279047467305
1,16,1.000987152804362,-0.00015914592612363478,-0.0009370290543092136
1,17,1.0009878470910594,-0.00022241408775473305,-0.0010583249297452665
1,18,1.0009891117758,-0.0003005353404265039,-0.0011737586339110194
1,19,1.0009912541123684,-0.00039452201895296616,-0.0012762677046899702
1,20,1.0009946049244134,-0.0005048992914471311,-0.0013579491658125087
1,21,1.0009994760574055,-0.000631643106111299,-0.0014101860121509336
1,22,1.0010061121595135,-0.000774132186412949,-0.0014240740994222842
1,23,1.0010146383623895,-0.0009311330704383957,-0.0013906629513998543
1,24,1.0010250110411654,-0.0011008013505534868,-0.0013014671972910587
1,25,1.0010369732794564,-0.0012807212180162306,-0.001148879755952779
1,26,1.001050022560516,-0.0014679750653121067,-0.0009268290126575584
1,27,1.0010633954164794,-0.0016592605923606827,-0.0006313365359200137
1,28,1.0010760816398774,-0.0018510403760357032,-0.0002611699181091582
1,29,1.0010868755798252,-0.0020397228406221365,0.00018174607063425514
1,30,1.001094467024732,-0.0022218505091672375,0.0006920312827042498
1,31,1.0010975599744207,-0.0023943004560071585,0.0012609187125883017
1,32,1.0010950050921632,-0.0025544867833866584,0.001876564559335425
1,33,1.0010859256137252,-0.0027005319215139077,0.002524791481327239
1,34,1.0010698177775395,-0.0028313316715985045,0.0031900276671632108
1,35,1.0010466069793413,-0.0029465033993817187,0.00385637420316229
1,36,1.0010166525894724,-0.0030462491509977226,0.0045085208933739376
1,37,1.0009807025487025,-0.0031311919474494437,0.005132517968824888
1,38,1.0009398117409631,-0.003202213359450847,0.005716270942517065
1,39,1.0008952392880472,-0.003260317915013454,0.00624983818541769
1,40,1.0008483445825733,-0.0033065244348888965,0.00672549075645989
1,41,1.0008004924923735,-0.0033417919337247015,0.007137636254563817
1,42,1.0007529795386882,-0.0033669701390979852,0.007482615865655401
1,43,1.0007069791214276,-0.0033827766162311157,0.0077584501222625075
1,44,1.000663510573319,-0.003389788359155119,0.007964563751790226
1,45,1.0006234213115843,-0.0033884495002344944,0.008101508433286926
1,46,1.0005873870138922,-0.0033790840566076544,0.00817073793800186
1,47,1.0005559140176217,-0.0033619170989045368,0.008174382754615656
1,48,1.0005293547432241,-0.0033370948657483216,0.008115127904914672
1,49,1.0005079152291574,-0.003304709511277902,0.007996051033262676
1,50,1.0004916754493949,-0.003264819291680225,0.007820614527680665
1,51,1.0004805930272742,-0.0032174730085388283,0.007592540859885347
1,52,1.0004745250263867,-0.0031627264527773723,0.007315917905464982
1,53,1.0004732240775998,-0.0031006664199772467,0.006995060092402439
1,54,1.0004763635295808,-0.003031419322470107,0.006634733111378192
1,55,1.000483525128541,-0.0029551777519375624,0.006239919563433093
1,56,1.000494232853076,-0.002872192847472464,0.005816196916298039
1,57,1.0005079321595811,-0.0027828120511176314,0.005369273695405712
1,58,1.0005240396144977,-0.0026874370537920793,0.0049056199111266715
1,59,1.0005419127946706,-0.00258659494713211,0.004431539530921781
1,60,1.0005609226063472,-0.0024808243647564065,0.0039542996482608605
1,61,1.0005804104760567,-0.0023708314094921306,0.0034803106231923613
1,62,1.000599787084513,-0.002257231883280153,0.0030173108389221323
1,63,1.0006184698313605,-0.0021408937288860696,0.0025708536689498973
1,64,1.0006360062880324,-0.002022410166591539,0.0021486837134154987
1,65,1.0006519833346577,-0.0019027894813797301,0.0017540854626893984
1,66,1.0006661635503629,-0.0017825078339022467,0.0013944450088446015
1,67,1.0006783613881698,-0.0016626659364222572,0.0010692440765477903
1,68,1.0006885851704777,-0.0015435951192505919,0.0007853978902752618
1,69,1.0006968783297827,-0.001426413474026628,0.0005375919501130208
1,70,1.0007034305190003,-0.0013113991695569312,0.00033242658341406796
1,71,1.0007084371268387,-0.0011994997689537981,0.00015998490618498003
1,72,1.0007122369540853,-0.0010910089972237594,2.6612187794241456e-5
1,73,1.0007150715208308,-0.0009868627430905427,-8.08607469540149e-5
1,74,1.0007171258513214,-0.0008873719833312091,-0.00015543819597526137
1,75,1.0007186131895538,-0.000792956540125698,-0.00021201020389817517
1,76,1.0007199543701475,-0.0007038057248834163,-0.00024340374989455284
1,77,1.0007213185699566,-0.0006208003010189403,-0.0002649709102101345
1,78,1.0007224972054838,-0.0005445100223028572,-0.0002665200596864076
1,79,1.0007232214156436,-0.00047514989056359353,-0.00026134935115198555
1,80,1.000723664178263,-0.0004119330128099887,-0.0002380894639901376
1,81,1.000724205507739,-0.00035407672282413273,-0.00021288680866252892
1,82,1.000725180189193,-0.00030048563318444137,-0.00017659076422466057
1,83,1.0007266069136722,-0.0002506058759243795,-0.0001482754694126508
1,84,1.0007283992677893,-0.0002037184533536918,-0.00011878422704125355
1,85,1.0007304402560482,-0.00016021191740922997,-0.00010833773126350501
1,86,1.0007324852059845,-0.00012016512290926112,-0.00010617215659290833
1,87,1.0007345743384932,-8.584415142375732e-5,-0.0001321783297150118
1,88,1.0007361827137657,-5.874141212425096e-5,-0.0001683426572172154
1,89,1.000737354726992,-4.064828977950103e-5,-0.00022709006966318304
1,90,1.000737984800174,-3.5281093884567624e-5,-0.00027487253452998164
1,91,1.0007379380841266,-3.7444494610760094e-5,-0.0003107027265574997
1,92,1.0007471054530779,-6.727638028983793e-5,-0.00027722171021414945
1,93,1.000750867852422,-0.00012709305980285307,-0.00011013248220749339
1,94,1.0007522799022612,-0.0002078449937722098,0.00027749105640386264
1,95,1.0007522236856536,-0.000296638931908172,0.0009323730047746445
1,96,1.0008125382758093,-0.000268303310359342,0.0017076754572033152
1,97,1.0009997026673765,-0.0010268638486689511,0.0033974611445294002
1,98,1.0003124278251903,-0.0010905483852002983,0.006588485037816326
1,99,1.0007768140070052,0.0005639775176477907,0.007658191854541324
1,100,1.0019537659148747,-0.0076907591868473,0.016412619706805513
1,101,0.9965382570868414,0.02652405785625023,0.013994820859458537
2,1,1.0009809891903536,1.831818910728447e-5,-5.752258122516533e-6
2,2,1.0009820394662439,3.967826641846144e-5,-3.638974399190446e-5
2,3,1.0009814535936463,4.7810751803132516e-5,-8.573177884946762e-5
2,4,1.000981259427027,5.7089170953503064e-5,-0.0001464592021456909
2,5,1.0009810035734967,6.973491969667204e-5,-0.0002200624378551325
2,6,1.0009806220621078,8.502812136958056e-5,-0.0003097498732052663
2,7,1.0009801575779338,0.00010339222907616596,-0.00041794470511204634
2,8,1.000979589090614,0.00012557509011039384,-0.0005474833991504979
2,9,1.0009788924229628,0.0001522362210453296,-0.0007011690900173042
2,10,1.0009780429251711,0.00018382445931273695,-0.000881575565766576
2,11,1.000977030971565,0.00022048729383065973,-0.0010901744513287734
2,12,1.00097587452423,0.0002620281341683483,-0.001326931950786516
2,13,1.0009746384903913,0.00030788489268379854,-0.0015894410129415671
2,14,1.0009734513176096,0.00035715173420155296,-0.001872647092100409
2,15,1.0009725212399316,0.0004086462268946376,-0.0021683030824849
2,16,1.0009721402177705,0.0004610210194079832,-0.0024651469103519454
2,17,1.000972677224853,0.0005128978954830936,-0.0027489572644103285
2,18,1.0009745516819353,0.0005629792235289988,-0.0030032820989214473
2,19,1.0009781968841818,0.0006101090460669841,-0.003209947509376322
2,20,1.0009840116769544,0.0006532784797645105,-0.003349967423666163
2,21,1.0009923137551682,0.0006916096276939123,-0.0034040740959144114
2,22,1.0010032916839384,0.00072436648292186,-0.0033535032710086056
2,23,1.0010169647022786,0.000751045790408121,-0.003180491924115721
2,24,1.001033143073532,0.0007715656835037168,-0.002869146316093235
2,25,1.0010513960514134,0.000786527032813097,-0.0024062428586457425
2,26,1.0010710237180154,0.0007974667330075567,-0.0017824367818651305
2,27,1.0010910501916856,0.0008070043308086171,-0.000993324936694409
2,28,1.001110243641112,0.0008188004670399778,-4.0576214796601627e-5
2,29,1.0011271789117206,0.0008373024955595783,0.0010674633847040432
2,30,1.0011403335207938,0.0008672959879004804,0.0023155267955911585
2,31,1.0011482197286152,0.000913323304697934,0.003681981275723365
2,32,1.0011495289176662,0.0009790707050953472,0.00513989608434148
2,33,1.001143275886498,0.001066863598654216,0.006658779618876869
2,34,1.00112890410346,0.0011773878621229588,0.008206481984395818
2,35,1.0011063441295844,0.0013096844079979648,0.009751186905367967
2,36,1.0010760037043638,0.001461377901182484,0.011263022756661746
2,37,1.001038711618666,0.0016290548702416702,0.01271532408620517
2,38,1.0009956152421935,0.0018086926157157702,0.01408533411746115
2,39,1.0009480708046323,0.0019960614421547914,0.01535451909154773
2,40,1.0008975250139134,0.0021870482255621137,0.016508479284664906
2,41,1.0008454234502397,0.002377883876979344,0.017536626488085176
2,42,1.0007931285412441,0.0025652737114284234,0.01843171252052633
2,43,1.0007418753818702,0.002746449720558301,0.019189256770484824
2,44,1.0006927338502685,0.0029191595887271093,0.01980704555418238
2,45,1.0006466056467513,0.0030816191204642704,0.02028455378705371
2,46,1.0006042148687602,0.0032324362739622366,0.02062261803552172
2,47,1.0005661289339012,0.003370531869364862,0.020822936356745703
2,48,1.0005327590245647,0.003495050762714895,0.020888008769630144
2,49,1.0005043912310807,0.0036052904107786287,0.020820690539686194
2,50,1.0004811836431176,0.0037006233517604195,0.020624453383543514
2,51,1.000463201669064,0.003780451900903567,0.020302901542715794
2,52,1.000450403942945,0.0038441494758643924,0.019860419294343443
2,53,1.0004426823856576,0.003891051309958735,0.019301504681283128
2,54,1.000439831808101,0.0039204161085652,0.018631913062641756
2,55,1.0004416002824568,0.0039314630681654235,0.017857590214889665
2,56,1.0004476375184346,0.003923353995599353,0.016986485334208854
2,57,1.0004575654704053,0.003895289326790849,0.016026751810046938
2,58,1.0004708991075977,0.0038465074707325015,0.014989484701947851
2,59,1.000487151661443,0.003776449104340845,0.013885695728293857
2,60,1.000505718942289,0.0036847599921866997,0.012730341068905757
2,61,1.0005260377126612,0.0035715164222992306,0.01153738090123951
2,62,1.0005474214854444,0.0034371985793524027,0.010325630133030552
2,63,1.0005692918276037,0.0032829408261093604,0.009111024992355953
2,64,1.00059094985439,0.003110429886082061,0.007915082780303334
2,65,1.000611895197202,0.002922104437871929,0.006753383320256877
2,66,1.0006315155668106,0.00272093967708274,0.005647751583576995
2,67,1.0006494943332034,0.00251054669102821,0.004610000033896166
2,68,1.0006654037159575,0.0022948289774636227,0.0036591564839297914
2,69,1.000679189178407,0.002077907776445483,0.002799829773583467
2,70,1.0006906637551893,0.0018637707492828602,0.00204558647277479
2,71,1.0007000270269708,0.001656302698965305,0.0013918667673615322
2,72,1.0007073033907812,0.001458734303347453,0.0008456726637628381
2,73,1.0007129316342684,0.001273341695051448,0.0003935930278428374
2,74,1.0007170355081847,0.0011016798032203172,3.7618154171998604e-5
2,75,1.0007199706931507,0.0009455278303779123,-0.00024140486372326811
2,76,1.0007219062707273,0.0008058387474813737,-0.00044468075485768106
2,77,1.0007235443089058,0.0006809888167726837,-0.0005953669676263696
2,78,1.0007250013956914,0.0005675755013516268,-0.0006925688357826897
2,79,1.000726201274138,0.0004641124994073372,-0.0007540833487327601
2,80,1.000726612570716,0.00037280509833302497,-0.0007735302154884495
2,81,1.00072646455185,0.0002975210958649643,-0.0007728905150709909
2,82,1.00072593199722,0.00024126021625591476,-0.0007559584073519611
2,83,1.0007255400023907,0.0002052173727417058,-0.0007576002175882447
2,84,1.0007250071374114,0.00018901779685570572,-0.0007881989970813627
2,85,1.0007243448153527,0.00019227750857225124,-0.0008852936985941083
2,86,1.0007231030014232,0.00021239026430211146,-0.0010549347983596575
2,87,1.0007209481880552,0.00024372190270785204,-0.001325019072707461
2,88,1.000718215420361,0.00027450004844151534,-0.0016809581584272214
2,89,1.0007144280152893,0.00028832010812578383,-0.002118155694400231
2,90,1.0007112863028096,0.0002702774777071445,-0.002587095258914046
2,91,1.0007118366255288,0.00018576145828859964,-0.003030393510862629
2,92,1.0007168594372613,3.3018027126712774e-6,-0.003343249461066839
2,93,1.0007430889909923,-0.0003669778530579025,-0.003409780764796709
2,94,1.000753997400293,-0.0008470990665282067,-0.0030359385503591417
2,95,1.0008136576968003,-0.0011982623503346032,-0.0023708265931128127
2,96,1.0008800352660243,-0.0023360709700139693,-0.0006012008258394789
2,97,1.0007822118504033,-0.003820641788940153,0.001871722781878254
2,98,1.0015394566245328,-0.004587538799938731,0.0039026183349207683
2,99,1.0004411246632907,-0.010822014122926557,0.016157489230344872
2,100,0.9996502223572996,-0.012210537951835463,0.021800576413735173
2,101,1.0038009401983101,0.05153315977728891,0.005626750053152
3,1,1.0009810291951933,3.313416724391036e-5,-5.654161595156466e-6
3,2,1.0009826725139928,8.443799973084839e-5,-4.0138252864434775e-5
3,3,1.0009821820586653,0.00011247494127159571,-0.00010495941983817273
3,4,1.00098169647167,0.0001365712518044821,-0.0001934985148558553
3,5,1.0009813573635808,0.00016535407161944227,-0.00030205586288607126
3,6,1.0009809656612123,0.0001991059497800531,-0.00043314107853003556
3,7,1.0009804530244615,0.0002371652110808419,-0.0005904685014657935
3,8,1.0009798293230538,0.0002793906579764152,-0.0007771827764638964
3,9,1.0009790639653524,0.00032479837321207946,-0.000995752687090767
3,10,1.0009781388296446,0.0003710191575567085,-0.0012474704434683724
3,11,1.0009770596711567,0.000414190366258819,-0.0015311435475070367
3,12,1.0009758678550678,0.00044899231525860785,-0.0018424874436070453
3,13,1.00097465648476,0.00046888342679589785,-0.0021731931801377124
3,14,1.0009735825966208,0.0004665126180022995,-0.002510980261811824
3,15,1.0009728724868847,0.0004343095405342776,-0.0028396148539102067
3,16,1.0009728154159991,0.00036517832239187504,-0.0031399613320310014
3,17,1.0009737442091253,0.0002531520716390254,-0.003390907581183877
3,18,1.0009760061312898,9.385517354846636e-5,-0.003570905679006174
3,19,1.0009799281335638,-0.00011530538874489118,-0.0036588984755428888
3,20,1.0009857853467172,-0.0003751742851612159,-0.0036353383982406762
3,21,1.000993774790314,-0.0006849705936077827,-0.0034823872746399145
3,22,1.0010039965094721,-0.001042331895660129,-0.003184270446165613
3,23,1.0010164341459777,-0.0014431699897036682,-0.00272724730246781
3,24,1.0010309289386627,-0.0018813425260153934,-0.0021002222309317283
3,25,1.0010471404629253,-0.0023482834311584176,-0.0012953947456401385
3,26,1.0010645018547013,-0.002832814332496852,-0.0003095825088339227
3,27,1.0010821850958822,-0.003321339219474175,0.0008547079056746
3,28,1.0010990943882667,-0.0037985071251345234,0.002188129101581175
3,29,1.001113902943278,-0.004248307018282713,0.003674219825446939
3,30,1.0011251412664477,-0.004655453549207619,0.00528961956927006
3,31,1.0011313386316176,-0.00500683559712807,0.007005449935504989
3,32,1.001131190746625,-0.00529273576165199,0.00878908943221095
3,33,1.0011237240111623,-0.005507568531915041,0.010606603613280243
3,34,1.001108411396521,-0.005650007914318105,0.012424822002812596
3,35,1.0010852285387635,-0.005722549905585224,0.014213327995541663
3,36,1.0010546327396224,-0.005730674194247493,0.01594556094897049
3,37,1.0010174937884777,-0.005681828683088699,0.017599608032978675
3,38,1.0009749801582237,-0.0055844292658471005,0.019158148843865217
3,39,1.000928445044515,-0.005447015967423906,0.020608317141135618
3,40,1.0008793069589577,-0.00527762376948528,0.02194099635599559
3,41,1.0008289629555365,-0.005083382849525733,0.02315031300416703
3,42,1.0007787107982125,-0.004870312048165629,0.024232782401521692
3,43,1.0007297111804654,-0.00464327144377626,0.025186812602763807
3,44,1.0006829539885342,-0.004406016958220064,0.026011962970478537
3,45,1.0006392586141486,-0.00416133028586232,0.026708606167809235
3,46,1.0005992678019087,-0.003911176518562994,0.02727738027183665
3,47,1.000563467122033,-0.0036568869297733428,0.027719016532827594
3,48,1.0005321902871316,-0.003399328714062918,0.028033986650916626
3,49,1.0005056434922395,-0.003139083045258858,0.02822244809042823
3,50,1.0004839132776202,-0.0028765917173692057,0.028284084321351582
3,51,1.0004669881954502,-0.002612315209956783,0.028218106135675592
3,52,1.00045476702177,-0.002346847867955875,0.028023321841118314
3,53,1.0004470747373475,-0.0020810555818336386,0.027698126271923095
3,54,1.0004436731521456,-0.001816153967221639,0.02724090152435875
3,55,1.000444269807339,-0.0015538205304454417,0.026649897118096625
3,56,1.0004485349535737,-0.0012962179039845466,0.025924139538165022
3,57,1.0004561010793664,-0.0010460597962475102,0.025063028813999893
3,58,1.0004665900524214,-0.0008065436503933006,0.024068015030232277
3,59,1.0004795983890091,-0.0005813349177526722,0.022941576750984995
3,60,1.0004947368703077,-0.00037436541918760144,0.021689988022573926
3,61,1.0005115943171274,-0.00018970546644677143,0.020321083661045007
3,62,1.0005297908521045,-3.1208335439225885e-5,0.018848482141119893
3,63,1.0005489150891786,9.771558401205635e-5,0.017287215564973014
3,64,1.0005685927921084,0.00019455789102315916,0.015659821535445734
3,65,1.0005884017249402,0.00025792864692727395,0.013988662169234955
3,66,1.0006079610395122,0.0002879706158440932,0.012304417732092334
3,67,1.0006268418260593,0.00028640352145338624,0.010633968620035279
3,68,1.000644669682575,0.0002566750893123452,0.0090120945111406
3,69,1.000661062550114,0.00020364458279387208,0.007464304837506836
3,70,1.0006757328403901,0.0001333848520455167,0.006022736851439708
3,71,1.000688453092061,5.2701515041304645e-5,0.00470430043375552
3,72,1.0006990861726823,-3.144635503594537e-5,0.003531790708692968
3,73,1.0007076377565625,-0.00011297372267407968,0.0025080928950840494
3,74,1.0007142509444678,-0.00018701705680771623,0.0016426869149446194
3,75,1.0007191420347137,-0.0002489959925565643,0.0009239282545799094
3,76,1.000722416692274,-0.00029478723710130465,0.00035015619539796795
3,77,1.0007244579079215,-0.00032425089716500434,-0.00010215059865929781
3,78,1.0007258419153422,-0.0003431414929319878,-0.00044325568482109115
3,79,1.000726945069493,-0.00035735348865001496,-0.0006985362834848733
3,80,1.0007273961860768,-0.0003644069875672941,-0.0008711348274949512
3,81,1.0007267657542143,-0.0003524340665568282,-0.0009836160428535413
3,82,1.0007250626305377,-0.00030670103638443446,-0.0010510209691266836
3,83,1.0007228126236365,-0.0002169179658638197,-0.0011209500426043169
3,84,1.0007204326378236,-8.028633708736102e-5,-0.001231462859366991
3,85,1.000718034937483,9.927485809874757e-5,-0.0014384399832287553
3,86,1.000715319291529,0.00031007215994420826,-0.0017695469750688784
3,87,1.0007121804316392,0.000526479491589368,-0.002250869702165621
3,88,1.0007074726325411,0.0007151584310172288,-0.002860020188293338
3,89,1.0007031201775987,0.0008357357856274405,-0.003569910371513203
3,90,1.0006988173280442,0.0008365841237610404,-0.004284375103542333
3,91,1.0006966426557875,0.0006820299051769719,-0.004926943885204594
3,92,1.000701080183111,0.0002750531383835537,-0.00534886259465012
3,93,1.0006953452280798,-0.0003694241405138261,-0.005498237599261069
3,94,1.000752772782836,-0.0011622414425651911,-0.005498692789968074
3,95,1.000760704443877,-0.002528982755987714,-0.004505427352575652
3,96,1.0006316578157388,-0.003694279049697858,-0.003435131233631964
3,97,1.0010854582201734,-0.005376306399141706,-0.002999478186469189
3,98,1.0007111940972448,-0.012457907580132873,0.003554657020252416
3,99,0.9995447623195876,-0.016985295950164712,0.005927126464328947
3,100,1.000610244110616,-0.0027376116183535915,-0.0006259602895401074
3,101,1.0005305338649049,0.05519175064709251,-0.0019252081565212214
4,1,1.0009806701083162,5.3891891355386605e-5,-6.924473661467639e-6
4,2,1.0009825287249576,0.0001412348252818476,-4.743116237953142e-5
4,3,1.0009822740179015,0.00020131701767976196,-0.00012472878943683548
4,4,1.0009818175264253,0.00025185788824248767,-0.00023418626646323198
4,5,1.0009813214728196,0.0003051703864625273,-0.00037033782447022775
4,6,1.0009809522456958,0.0003672056099798112,-0.0005310098874582661
4,7,1.0009805460944645,0.0004387805740450204,-0.0007183740016160177
4,8,1.000980032135834,0.000519310016417518,-0.000934751294302075
4,9,1.0009794290621876,0.0006074539411249896,-0.0011798018007990738
4,10,1.0009787399376116,0.0006999515703103021,-0.0014506032557795724
4,11,1.0009779924527127,0.0007914041285386704,-0.001740414175100491
4,12,1.0009772499188219,0.0008746532099639081,-0.0020383699609562754
4,13,1.0009766154139608,0.0009414661161056957,-0.002329090221478898
4,14,1.0009762373843882,0.0009834848966429738,-0.0025936991637655333
4,15,1.000976303612098,0.0009932588519690048,-0.002810826963807974
4,16,1.0009770276432768,0.0009651394170176676,-0.00295868005537193
4,17,1.000978626240577,0.0008957800034341649,-0.003016424842069692
4,18,1.0009812969117622,0.0007840850527867565,-0.0029657439307532877
4,19,1.000985199100618,0.0006306661091299167,-0.0027910000075756633
4,20,1.0009904481999803,0.000437087205446523,-0.0024792309827626436
4,21,1.000997119169404,0.0002052915416324357,-0.0020190807402491007
4,22,1.0010052541308816,-6.244899249290256e-5,-0.001400365818120536
4,23,1.0010148551285163,-0.00036293973754704894,-0.0006136695338188385
4,24,1.0010258495437747,-0.0006909920116212077,0.0003486008685875742
4,25,1.001038026295217,-0.0010382979248259947,0.0014908632163758658
4,26,1.001050958270255,-0.001392730274443043,0.002812025809625972
4,27,1.0010639377260317,-0.001738429215361047,0.004303843623268444
4,28,1.001075946995924,-0.0020568040575925416,0.005949485060711169
4,29,1.001085699155645,-0.002328360592847427,0.007723863373270164
4,30,1.0010917506801296,-0.002535002403696554,0.009594787071557384
4,31,1.0010926847039772,-0.0026622879531803603,0.011525783428491294
4,32,1.0010873019344415,-0.0027010955498692076,0.013478888304397044
4,33,1.001074794722675,-0.0026483674889570185,0.015417908372180432
4,34,1.0010548368763346,-0.002506872882254217,0.017310455517483173
4,35,1.001027614216742,-0.0022842088021850413,0.019129725524046112
4,36,1.0009937610630308,-0.0019913623564798174,0.02085475473476945
4,37,1.0009542775475544,-0.0016411880541632447,0.02247063047579078
4,38,1.0009103944617512,-0.0012470397091598026,0.023967536833112892
4,39,1.000863474438545,-0.0008217133171078019,0.02534026140113717
4,40,1.0008148891321207,-0.0003767258862310951,0.02658688483236891
4,41,1.000765962069566,7.808054629477549e-5,0.027708270924639986
4,42,1.0007178889727875,0.0005346863099253362,0.0287068654567121
4,43,1.0006717303484365,0.0009868483311420708,0.02958644040264299
4,44,1.0006283685824144,0.0014299427460125957,0.030351120785995472
4,45,1.000588534528382,0.001860734048823058,0.031005403646613257
4,46,1.0005527836933,0.002277126101417176,0.031553370523906756
4,47,1.0005215385013602,0.0026779040658402252,0.03199891236746063
4,48,1.0004950693526355,0.00306250017034156,0.03234504520290518
4,49,1.0004735402456475,0.0034307694791489334,0.03259426594975705
4,50,1.0004569876210108,0.0037828001946792656,0.03274790272182187
4,51,1.0004453634367696,0.004118727795112768,0.032806550171973335
4,52,1.0004385105814382,0.004438583896836962,0.03276942114802987
4,53,1.0004362019055577,0.004742132302317917,0.032634840975164406
4,54,1.0004381150288064,0.005028744754568905,0.03239961948408121
4,55,1.000443868483893,0.00529724573204184,0.03205961456050296
4,56,1.0004530016118436,0.0055458187734232205,0.03160922160565445
4,57,1.0004650102287551,0.005771868690454408,0.031042038146179403
4,58,1.0004793389933688,0.005971994229910185,0.03035067594709275
4,59,1.000495418059999,0.006141913301261543,0.029527538661473892
4,60,1.0005126742308006,0.006276578038787022,0.02856527874044359
4,61,1.000530564727208,0.006370246326696972,0.027457570451478668
4,62,1.0005486074411047,0.006416836483887266,0.026200596489372282
4,63,1.0005663973751244,0.0064102290610634554,0.02479337009504539
4,64,1.000583645688256,0.006344906793062294,0.023240567168638274
4,65,1.0006001550176067,0.006216477629330853,0.02155141005567793
4,66,1.0006158547498887,0.006022487956808609,0.019743951460104894
4,67,1.0006307146595643,0.005762955997116619,0.01784100451260383
4,68,1.0006447808473613,0.0054410171237337535,0.015875850522132962
4,69,1.0006580433573895,0.005063076687520386,0.013883664639846277
4,70,1.0006705110167011,0.0046388653302812085,0.011908796745855998
4,71,1.0006820635785392,0.0041808951372572815,0.00999114094074385
4,72,1.0006925917513594,0.003703766859018675,0.008175900743604171
4,73,1.0007018779228916,0.003222813805751692,0.006495793242997593
4,74,1.0007098362139717,0.002752786711006722,0.004984106310675592
4,75,1.0007163844362665,0.0023071176927003546,0.0036553757862226987
4,76,1.0007215073426934,0.0018980578695282073,0.0025241206030784985
4,77,1.0007250885833043,0.0015342517375932258,0.0015848415442575817
4,78,1.0007274378903486,0.0012159756212502927,0.000830682989395509
4,79,1.0007291516196248,0.0009359218770371773,0.00023607444604757167
4,80,1.0007305835048401,0.0006914703627367404,-0.0002137032813978552
4,81,1.0007312448939933,0.0004962257187123262,-0.0005389648636021862
4,82,1.0007306186849028,0.000378149096093935,-0.0007548873591769925
4,83,1.0007289010584395,0.00036416562231518886,-0.0009053079506362794
4,84,1.0007268655823744,0.00046505501219027307,-0.0010446249650520251
4,85,1.0007253239529332,0.0006718872413644796,-0.0012443569684356395
4,86,1.0007245428184308,0.0009512780847585038,-0.0015508841365353624
4,87,1.0007234347663123,0.0012472398443996563,-0.001985682907445538
4,88,1.0007226313602313,0.0014885342746070152,-0.002519357658412809
4,89,1.000720357654373,0.0015930192610651495,-0.003074685679108061
4,90,1.0007198432886677,0.0014918739592154058,-0.003561861619743273
4,91,1.0007190939663138,0.0010944508133441872,-0.003828468115618578
4,92,1.0007110213325399,0.0004502288982861436,-0.0038576953938408835
4,93,1.0007501304061384,-0.0004046138763546801,-0.003758055665403209
4,94,1.0007261944345474,-0.0018916765370458237,-0.0029479259266323838
4,95,1.0006878298204178,-0.0031731149852986455,-0.0024804034318374195
4,96,1.001012288392555,-0.0044898226779570595,-0.0021054455099732603
4,97,1.0006118277077654,-0.00983011257931066,0.002504311947486054
4,98,1.000083155345102,-0.014342984035783215,0.0030188288526337755
4,99,1.0009206084067248,-0.010678933438993468,-0.002080984543173021
4,100,1.001309007374704,-0.0015248286652054827,-0.002471930415455465
4,101,0.999809127314737,0.05208791131636437,-0.000551039570311674
5,1,1.0009803978634608,7.437857931713865e-5,-7.858337537351783e-6
5,2,1.000982441092554,0.0002035284606521763,-5.418406879836103e-5
5,3,1.0009821589649128,0.0002996522123902045,-0.00014223898385619802
5,4,1.0009818429919795,0.00038018507833946415,-0.0002649224976161977
5,5,1.0009813903376927,0.0004576521294151491,-0.00041651433260726605
5,6,1.0009809387836026,0.0005407589304016708,-0.0005925423843345495
5,7,1.0009805808466905,0.0006327909931839619,-0.0007902979412370931
5,8,1.0009801706551695,0.0007308356256975195,-0.0010088439944344035
5,9,1.0009796505239439,0.000828717445551074,-0.0012442916184420088
5,10,1.0009790459987296,0.0009177615220754155,-0.0014884770956796415
5,11,1.0009783691653131,0.0009864130412103587,-0.0017287646164680665
5,12,1.0009776513970212,0.0010210505434162212,-0.0019488515756032369
5,13,1.0009769564439026,0.0010075494760462562,-0.0021291634774373677
5,14,1.0009763841874957,0.0009330275523384661,-0.0022490061166897403
5,15,1.0009760721385936,0.0007873994993473344,-0.002288093499271504
5,16,1.000976189417574,0.0005643150852891087,-0.00222881142405779
5,17,1.0009769244140259,0.00026120547445058904,-0.002056718930972309
5,18,1.0009784776210093,-0.00012154061471113837,-0.0017607966219852092
5,19,1.0009810623457045,-0.0005818784294287578,-0.0013316867347415101
5,20,1.0009849201900132,-0.0011172200323934349,-0.0007602966357387918
5,21,1.000990334525523,-0.001724716012154454,-3.585037146697101e-5
5,22,1.0009976213035725,-0.0024003817521543094,0.0008539443272018562
5,23,1.0010070704787304,-0.003137284392857244,0.001921921024958118
5,24,1.001018834281048,-0.0039234733451373495,0.003178041802748194
5,25,1.0010327882881027,-0.004740536334395474,0.0046261161541059775
5,26,1.001048397963309,-0.005563461958732789,0.00625989413326732
5,27,1.0010646470780382,-0.006362120879025531,0.008061459895383295
5,28,1.0010800536902629,-0.0071042052841480815,0.010000769461571819
5,29,1.0010928200971039,-0.007759043133122764,0.012038452473495652
5,30,1.0011010583824638,-0.00830135177272183,0.014129297770481209
5,31,1.001103074570707,-0.008714034478792784,0.016227490151393093
5,32,1.0010975822069457,-0.008989433523315247,0.01829030422270768
5,33,1.0010838679692662,-0.009129002481688304,0.020281786082814595
5,34,1.0010618047141677,-0.009141733451671,0.022173720374756647
5,35,1.001031833451479,-0.009041931319990535,0.023946550913347093
5,36,1.0009948189636557,-0.008846855469943456,0.025587961040801365
5,37,1.0009519589052878,-0.00857465478276916,0.02709234355629011