TITLE="CMs_NON_Orthogonal Re = 10000.0"
VARIABLES = X,Y,Rho,U,V
ZONE
I = 101	J = 101
F=POINT
1,1,1.00098600295632,1.915174233177814e-6,-2.8284191865028142e-6
1,2,1.0009870987853253,5.562420639932987e-6,-1.8229781204526104e-5
1,3,1.0009870229073012,5.875333008877185e-6,-3.819457409087056e-5
1,4,1.0009872791947703,6.693044617065389e-6,-6.11930328134354e-5
1,5,1.0009875561172938,7.533590136383273e-6,-8.872765512050051e-5
1,6,1.0009878400482994,8.10292337190954e-6,-0.0001218517545226438
1,7,1.0009881547402186,8.121800679335437e-6,-0.00016140299315604874
1,8,1.0009885140865835,7.206325491781243e-6,-0.00020848675793419384
1,9,1.0009889110947647,4.774961231943393e-6,-0.00026417495074944493
1,10,1.000989329958304,1.5287920020173485e-8,-0.00032964543211510904
1,11,1.000989745483092,-8.123185919307015e-6,-0.0004057324349059076
1,12,1.0009901333060587,-2.0929365063720826e-5,-0.0004929763343891808
1,13,1.0009904798428098,-3.991168283429676e-5,-0.0005911379451726438
1,14,1.000990797646007,-6.67504218895757e-5,-0.0006992042511359423
1,15,1.000991142159582,-0.00010322623474065946,-0.0008149518788013383
1,16,1.0009916289463552,-0.00015110759471475315,-0.0009350147906310737
1,17,1.0009924434218085,-0.00021202797548223348,-0.0010546302199266183
1,18,1.0009938399027918,-0.0002873501139743345,-0.0011678772917407434
1,19,1.0009961239008636,-0.0003780572919464648,-0.0012676608692875682
1,20,1.0009996210853227,-0.0004846587321198934,-0.0013460906645688109
1,21,1.0010046335090474,-0.000607133022015629,-0.001394615957169132
1,22,1.0010113910485803,-0.0007448849721769293,-0.001404451732146067
1,23,1.0010200000509135,-0.000896733062210946,-0.0013668096425084825
1,24,1.0010303962940814,-0.001060909822211957,-0.0012733940903016012
1,25,1.0010423034365687,-0.0012350969507470794,-0.0011167972029531808
1,26,1.0010552037157405,-0.001416488048165362,-0.0008911404754929797
1,27,1.0010683250129475,-0.0016018977977741166,-0.0005926190617361093
1,28,1.0010806565370534,-0.0017879042489520654,-0.00022014574796955106
1,29,1.0010910006011589,-0.0019710240153849455,0.00022424636824124126
1,30,1.001098062928776,-0.0021478966362881774,0.0007351116247332457
1,31,1.0011005698810662,-0.002315482085364107,0.0013036676849538951
1,32,1.0010973985762728,-0.0024712595642046664,0.0019181096039631983
1,33,1.0010877000351042,-0.0026133942822418356,0.0025643520785939527
1,34,1.0010709967072546,-0.002740800464462788,0.003226956384977048
1,35,1.0010472360560603,-0.0028530917866645754,0.0038901833448127684
1,36,1.001016793499971,-0.0029504496691465103,0.00453889254682768
1,37,1.000980426199639,-0.0030334652918884808,0.005159301504837408
1,38,1.0009391916188124,-0.0031029823039933338,0.005739468134694403
1,39,1.0008943459105275,-0.003159965245258555,0.006269581694448081
1,40,1.0008472414487835,-0.003205393924140088,0.006742016621764318
1,41,1.0007992337472071,-0.003240191340651829,0.0071512565419240915
1,42,1.000751609074438,-0.0032651754925743124,0.00749369072710042
1,43,1.0007055309301338,-0.0032810370542660445,0.0077673645533382135
1,44,1.0006620098068926,-0.0032883310986525304,0.007971706004865063
1,45,1.0006218859042837,-0.0032874845073772706,0.008107254805189116
1,46,1.0005858293374672,-0.00327880827284603,0.008175438783946365
1,47,1.0005543426683186,-0.0032625180119090513,0.008178354975527182
1,48,1.000527775962303,-0.003238753468757119,0.008118646842667684
1,49,1.0005063343386684,-0.003207602538875165,0.007999348769219313
1,50,1.0004900977212843,-0.0031691208968080494,0.00782387520702537
1,51,1.0004790246635096,-0.003123355743381438,0.007595903158743176
1,52,1.0004729734287494,-0.003070361858913197,0.007319471684847555
1,53,1.0004716984467537,-0.003010224902838084,0.0069988524944463466
1,54,1.0004748745593661,-0.0029430699319832583,0.006638764943760278
1,55,1.0004820853410858,-0.0028690870321406063,0.006244155968519487
1,56,1.0004928557263308,-0.0027885241778640357,0.005820561835584333
1,57,1.0005066323244933,-0.002701723380993959,0.005373667872976247
1,58,1.0005228314152703,-0.002609080391437528,0.004909910397284081
1,59,1.0005408105156948,-0.0025111125539203677,0.004435590292769693
1,60,1.0005599385202064,-0.0024083494366299715,0.003957949154374078
1,61,1.0005795553605983,-0.0023014817166474954,0.0034834245239978843
1,62,1.000599067935216,-0.002191113485353214,0.0030197326818353527
1,63,1.0006178910209995,-0.0020780902350079357,0.002572496695401889
1,64,1.0006355672678722,-0.0019629922265142923,0.00214942688586794
1,65,1.0006516807323147,-0.001846797636172442,0.0017539331439420875
1,66,1.000665989165801,-0.0017299700786924817,0.0013933269995952298
1,67,1.000678305363067,-0.0016135739641930128,0.001067281302331968
1,68,1.000688634445784,-0.0014979296172247787,0.0007825637659297713
1,69,1.0006970202321372,-0.001384117549285885,0.0005341179872449328
1,70,1.0007036513973808,-0.0012724058514692735,0.00032830377843577206
1,71,1.0007087266376098,-0.0011637082413934474,0.00015551573368292933
1,72,1.0007125866527988,-0.001058312614878976,2.1766899548410537e-5
1,73,1.0007154756033783,-0.000957131486515443,-8.575436020211495e-5
1,74,1.0007175794925471,-0.0008604674619886808,-0.00016045192333192596
1,75,1.00071911980396,-0.0007687214751630907,-0.00021684172803353993
1,76,1.00072052328545,-0.0006820916331039134,-0.0002482025704227569
1,77,1.0007219563954248,-0.0006014647951928444,-0.00026944895266003835
1,78,1.000723202204316,-0.0005274174275558422,-0.0002708066395403052
1,79,1.0007239944286512,-0.0004601485159938051,-0.00026508544356134914
1,80,1.000724514375192,-0.00039886549505895215,-0.00024139223878186136
1,81,1.0007251465223954,-0.0003427825708293352,-0.00021540993377891347
1,82,1.0007262187446082,-0.00029082230264784145,-0.00017850306556102546
1,83,1.000727741411021,-0.00024243554224619702,-0.00014924392147622038
1,84,1.0007296220476931,-0.00019691298204128584,-0.00011902440128227908
1,85,1.000731744006238,-0.0001546217795961119,-0.00010756485877426472
1,86,1.0007338654595828,-0.00011561790140390185,-0.00010474928777916502
1,87,1.0007360291467862,-8.211338415032856e-5,-0.00013001056512895672
1,88,1.0007377077180764,-5.5581913691610566e-5,-0.00016611672625130948
1,89,1.000738934025254,-3.783889539141676e-5,-0.0002250303352978285
1,90,1.000739576380849,-3.2662697434783455e-5,-0.000273891595597586
1,91,1.0007394961956066,-3.4979134527840655e-5,-0.00031099046923311566
1,92,1.0007485665449394,-6.498727754154187e-5,-0.0002792346848038667
1,93,1.000752208536982,-0.00012498410114090088,-0.00011350246419574021
1,94,1.000753556830584,-0.0002059734725191622,0.00027295335515007925
1,95,1.0007534255401644,-0.00029491916773498317,0.0009271278828649217
1,96,1.0008138252639092,-0.0002665632726617351,0.0017018230231259993
1,97,1.0010012641158776,-0.0010253915925453527,0.0033909415123996923
1,98,1.0003141073878206,-0.0010899866268106327,0.006582170393373918
1,99,1.000778297300479,0.000563533436169887,0.007655240629232491
1,100,1.001955524669475,-0.0076908118983356685,0.016412163227543596
1,101,0.9965396270055007,0.026524598382071565,0.013995412409314243
2,1,1.0009847062720059,1.858095727133766e-5,-5.853230714250536e-6
2,2,1.0009857768066626,4.0153296300447245e-5,-3.69469666833532e-5
2,3,1.000985180054519,4.814109227769558e-5,-8.67538337501962e-5
2,4,1.00098500069316,5.735066380167041e-5,-0.0001478192173246118
2,5,1.0009847672479464,6.99514343758322e-5,-0.00022172891384172959
2,6,1.0009844117760218,8.513458378044642e-5,-0.0003117060293760397
2,7,1.0009839798278946,0.00010331202204542441,-0.0004201253037853333
2,8,1.0009834516339122,0.00012522172387476608,-0.0005497856249046157
2,9,1.0009828037039818,0.0001514903215472189,-0.000703460103654029
2,10,1.0009820123778177,0.00018252027736748104,-0.0008836805323251254
2,11,1.0009810694832988,0.00021840498293901236,-0.0010918615177666414
2,12,1.000979994707504,0.0002588840826661623,-0.0013278919842956277
2,13,1.0009788547354308,0.00030332059352194697,-0.0015892619642087962
2,14,1.0009777799245836,0.00035072824276470425,-0.0018707804053673075
2,15,1.0009769804620499,0.00039985065599065827,-0.002164035278889084
2,16,1.0009767499309805,0.0004492881318234165,-0.002457588382611497
2,17,1.0009774576071941,0.000497646025361,-0.002737065128491362
2,18,1.0009795205290957,0.0005436556192885884,-0.0029859224973874223
2,19,1.0009833653880766,0.000586235995740162,-0.003185996117455667
2,20,1.0009893792394093,0.0006244904274180956,-0.0033184308978851653
2,21,1.000997862858037,0.000657674088985633,-0.0033642101248481117
2,22,1.0010089842305332,0.000685187046120116,-0.0033049140482553437
2,23,1.001022740858858,0.000706651107165643,-0.0031231761885416424
2,24,1.0010389230608807,0.0007220915275563011,-0.0028035064387919232
2,25,1.0010570844297353,0.0007321977203461325,-0.002333056007494856
2,26,1.0010765153453622,0.0007385784103956105,-0.001702803838919351
2,27,1.001096236980374,0.0007439084350125577,-0.0009086089562780602
2,28,1.0011150216445521,0.0007518840510067586,4.7663584089050524e-5
2,29,1.0011314553324298,0.0007669637142919849,0.0011575422676401038
2,30,1.0011440332812738,0.0007939163765938058,0.0024057111260845808
2,31,1.0011512909715863,0.0008372414470838167,0.00377057229672747
2,32,1.0011519467542735,0.0009005632926107227,0.005225315989042415
2,33,1.0011450435778926,0.0009861384773501266,0.006739651997932977
2,34,1.001130051376086,0.0010945899440900225,0.008281694454887455
2,35,1.0011069227469247,0.001224911445541092,0.009819930113218057
2,36,1.001076081186655,0.0013747012346986074,0.011324801647273206
2,37,1.001038364095888,0.001540540250525617,0.012769946089500623
2,38,1.000994920699335,0.0017184175472726446,0.014132876953325851
2,39,1.000947103412399,0.0019041271725504243,0.01539528807963803
2,40,1.0008963511926294,0.00209358616131735,0.016542956904955695
2,41,1.000844099525739,0.0022830572032216823,0.017565424208658496
2,42,1.000791700040814,0.0024692755979654566,0.01845552321035739
2,43,1.0007403773281576,0.0026494994140492333,0.019208816749163513
2,44,1.0006911920092603,0.002821497652284802,0.01982309897667006
2,45,1.0006450379788632,0.002983502531730278,0.020297829524965495
2,46,1.0006026333846247,0.0031341340869869417,0.020633805846608403
2,47,1.000564541193348,0.003272321450548796,0.020832676944923398
2,48,1.0005311698441643,0.0033972149731121143,0.02089687724442616
2,49,1.000502803715298,0.0035081152069347202,0.020829196411774147
2,50,1.0004796005271488,0.0036043962017530138,0.020633025891565855
2,51,1.0004616257532595,0.003685460027923517,0.020311897501629334
2,52,1.0004488391511703,0.003750678685966809,0.019870105345892137
2,53,1.00044113361346,0.0037993838596259663,0.019312073409087794
2,54,1.0004383058848225,0.0038308290834295254,0.018643457912797607
2,55,1.000440105222768,0.0038442249204099018,0.017870133542537765
2,56,1.0004461835929335,0.0038387218913017397,0.016999942068803734
2,57,1.0004561637533715,0.00381350377243375,0.016040976900510675
2,58,1.0004695628560734,0.003767788663688436,0.015004221094587235
2,59,1.0004858939439198,0.003700989847239912,0.01390065260909121
2,60,1.0005045545461426,0.0036127220640625323,0.012745119569531258
2,61,1.0005249795883786,0.0035030231324286428,0.011551597568803576
2,62,1.0005464834814692,0.003372333214734726,0.010338808854002261
2,63,1.0005684837673816,0.003221741319063822,0.009122780858798937
2,64,1.0005902815314092,0.003052891674203937,0.00792496061089112
2,65,1.0006113701497334,0.002868179594654347,0.006761114773248697
2,66,1.0006311368323852,0.0026705454649321968,0.00565301216631782
2,67,1.00064925726595,0.002463569912168299,0.004612747337066757
2,68,1.0006653038797109,0.002251137844593053,0.003659275875261771
2,69,1.0006792145936754,0.0020373580780357493,0.0027975568668629535
2,70,1.0006908046714336,0.0018262199009722057,0.0020410241356048037
2,71,1.000700267775598,0.00162161431333781,0.001385490089488763
2,72,1.0007076339579404,0.0014267798176019273,0.00083772262587865
2,73,1.000713338814318,0.0012439955557995966,0.00038467087861124305
2,74,1.0007175121898424,0.0010748379109426435,2.7987651174550084e-5
2,75,1.0007205069020924,0.0009211122860407813,-0.00025115125133561163
2,76,1.0007225065538796,0.0007837541163803679,-0.0004544067825863183
2,77,1.000724216789863,0.0006610611422302182,-0.0006045899135834172
2,78,1.000725756996179,0.0005495771283752214,-0.0007011813769093821
2,79,1.000727036834996,0.000447848448765783,-0.0007614674996624791
2,80,1.0007275312074646,0.0003581568378658331,-0.0007794887417266834
2,81,1.0007274721213517,0.000284408471312029,-0.0007768592834930363
2,82,1.0007270436461744,0.00022959659575083933,-0.0007579699855406857
2,83,1.0007267567947726,0.00019491420385411523,-0.0007573098656629782
2,84,1.0007263236425965,0.0001800193193402971,-0.0007858285063549147
2,85,1.0007257397929723,0.00018458959669202948,-0.0008806587372181923
2,86,1.000724559932496,0.00020611078211449423,-0.0010485859755564313
2,87,1.0007224472466836,0.00023904651591159407,-0.0013173635280771293
2,88,1.0007197399481615,0.0002716467795227047,-0.0016734483834647687
2,89,1.0007159449219079,0.00028735491832276383,-0.00211208791466652
2,90,1.0007127562534281,0.0002708918344507791,-0.002584265959448302
2,91,1.000713197482052,0.00018724544552551508,-0.003031352748815128
2,92,1.0007181084535388,4.724731944419635e-6,-0.0033480674965054836
2,93,1.0007442223690686,-0.00036631674193401845,-0.003416911267739745
2,94,1.0007551019496512,-0.0008472329816521281,-0.003044351743915586
2,95,1.0008148182660197,-0.001198704691197815,-0.0023796876486942044
2,96,1.000881295637896,-0.0023360079234572397,-0.0006110109351138423
2,97,1.0007838185304376,-0.0038209839270420343,0.0018603052957915905
2,98,1.0015411772759761,-0.004591352369005074,0.003891148508912329
2,99,1.000443110967525,-0.010829833336326112,0.01615073641858619
2,100,0.999651425241575,-0.01221437452855835,0.021798330476793075
2,101,1.0038019017786612,0.05153327525232896,0.005626565828482764
3,1,1.0009847484773102,3.37523763148108e-5,-5.734252915509955e-6
3,2,1.0009864177400012,8.551031689133827e-5,-4.0613539405670824e-5
3,3,1.0009859151609477,0.00011329116991247946,-0.000105828813487596
3,4,1.0009854406429717,0.0001372506200825375,-0.00019460831784016378
3,5,1.0009851258356826,0.00016604891126792214,-0.00030330915779360835
3,6,1.000984761022382,0.00019978967618895479,-0.0004344931075018914
3,7,1.0009842794381187,0.00023778393667849677,-0.0005918317303656551
3,8,1.0009836947222854,0.0002799391781264371,-0.0007783977658947899
3,9,1.0009829771430387,0.0003252955327353038,-0.0009966080436734513
3,10,1.000982109367387,0.0003714889544779259,-0.001247700517192123
3,11,1.0009810987268475,0.0004146619391750169,-0.001530412021435628
3,12,1.000979988552408,0.00044949503420858166,-0.0018403645282442504
3,13,1.0009788739400602,0.0004694356352600512,-0.0021691289355613872
3,14,1.0009779137937334,0.0004671202699175997,-0.0025042749855721256
3,15,1.0009773359925678,0.0004349895737127855,-0.002829405677489572
3,16,1.0009774305148087,0.0003660096184382416,-0.003125242720656938
3,17,1.0009785289884716,0.000254344174543603,-0.00337060185165855
3,18,1.000980974232025,9.581473817952421e-5,-0.003543976851819135
3,19,1.0009850844140047,-0.00011193502806014472,-0.003624489298769852
3,20,1.0009911212164166,-0.00036951995771768246,-0.0035928930553537006
3,21,1.000999264431149,-0.0006759872228340584,-0.003431728897612912
3,22,1.0010095950025404,-0.001028897946489041,-0.0031256141336168633
3,23,1.0010220779954158,-0.0014241942642130962,-0.0026611571203896916
3,24,1.001036538538178,-0.001855855521338408,-0.0020275355394943524
3,25,1.0010526237555508,-0.0023154974279646504,-0.0012171461521260957
3,26,1.001069758523703,-0.0027921520574828223,-0.00022694620592900234
3,27,1.0010871113831854,-0.0032724421516896938,0.0009404523818946931
3,28,1.0011035887760635,-0.003741236383763825,0.0022756205227525386
3,29,1.001117872965816,-0.004182744128845553,0.0037620431335098543
3,30,1.001128510993209,-0.0045819004383999195,0.005376351865163686
3,31,1.0011340558501893,-0.00492580737102126,0.007089724654461597
3,32,1.001133232197801,-0.0052049388855324105,0.008869671317866895
3,33,1.0011250973882146,-0.005413861062166289,0.010682457398366613
3,34,1.00110915342999,-0.005551344975932699,0.012495162526772637
3,35,1.0010853996850246,-0.005619922654690836,0.014277642117497713
3,36,1.0010543096471807,-0.005625052036093858,0.016003603393253595
3,37,1.001016761142663,-0.0055741125362979696,0.017651374671530985
3,38,1.0009739232178752,-0.005475420082667551,0.019203837745746827
3,39,1.0009271437815797,-0.005337398868077555,0.020648282902691602
3,40,1.0008778321464908,-0.005167965601553569,0.02197570623232589
3,41,1.0008273741400329,-0.004974139500279797,0.023180306455846695
3,42,1.0007770558511535,-0.004761841886311782,0.024258638511366396
3,43,1.0007280269747012,-0.004535851511066839,0.025209123717549325
3,44,1.0006812678027064,-0.004299859676237616,0.026031316257568198
3,45,1.0006375898655147,-0.004056598826120638,0.026725570432533517
3,46,1.0005976298604247,-0.0038079982220415648,0.027292498014363082
3,47,1.000561869004806,-0.0035553640062706768,0.02773279961200309
3,48,1.0005306381139147,-0.0032995466612787375,0.028046913587073112
3,49,1.0005041416983596,-0.003041116393085833,0.028234964362718197
3,50,1.0004824654673565,-0.0027805081386494154,0.028296599994097157
3,51,1.0004655978291084,-0.002518177481786847,0.02823099793087431
3,52,1.000453437677351,-0.002254715182417138,0.028036926682189673
3,53,1.0004458104008787,-0.001990983287740076,0.02771274398469737
3,54,1.0004424779805206,-0.001728193781929221,0.027256780051128235
3,55,1.0004431482219112,-0.0014680197061143784,0.026667236973215845
3,56,1.0004474910235093,-0.0012126200908491363,0.025943066480965185
3,57,1.0004551386743537,-0.000964705250583503,0.02508360481798861
3,58,1.0004657119941611,-0.0007274723339366601,0.024090194667065815
3,59,1.0004788069667452,-0.000504588921673731,0.022965235156875603
3,60,1.0004940329145722,-0.0002999950105043453,0.02171485833215826
3,61,1.0005109783362531,-0.00011777348941841614,0.02034681980292048
3,62,1.000529262087637,3.820211597458625e-5,0.018874575165703376
3,63,1.0005484732811554,0.00016449756904051148,0.01731311502116284
3,64,1.000568237042876,0.0002585753546885938,0.01568482535479934
3,65,1.0005881324987653,0.0003190185381900597,0.014012119246314245
3,66,1.0006077785690202,0.0003459455409554789,0.012325575873212829
3,67,1.0006267476489368,0.00034106394609381403,0.010652268647777626
3,68,1.000644664619206,0.0003078216415690872,0.009026946376986176
3,69,1.000661147573294,0.0002510980334835309,0.007475462718773282
3,70,1.0006759074622242,0.00017700620095589023,0.006029965856050928
3,71,1.0006887152582873,9.241243105991593e-5,0.004707810682945159
3,72,1.0006994321666818,4.3438674539382216e-6,0.0035317693638291943
3,73,1.0007080627311356,-8.104634184173841e-5,0.0025051750364727277
3,74,1.0007147508902603,-0.0001588125597043587,0.0016373652464453468
3,75,1.0007197105331955,-0.00022427527638069908,0.0009170797297366583
3,76,1.0007230488832493,-0.00027326666688150963,0.0003423522193587636
3,77,1.0007251557322434,-0.00030574328494904844,-0.00011008085836210664
3,78,1.00072661789073,-0.00032761430374813553,-0.00045087559853400317
3,79,1.0007278058009654,-0.0003447824483840327,-0.000705003613869363
3,80,1.0007283395823985,-0.0003545850855570081,-0.0008758826615515407
3,81,1.000727787326907,-0.0003449652548296471,-0.0009857847763779985
3,82,1.0007261695136642,-0.0003011560770709894,-0.0010503978049782774
3,83,1.0007240141886005,-0.00021294847073409458,-0.0011172706284367708
3,84,1.000721730642337,-7.75940386429594e-5,-0.001225076004931814
3,85,1.0007194131212545,0.00010110512705734953,-0.0014294584947740962
3,86,1.0007167559293615,0.000311776829924397,-0.0017587355484534647
3,87,1.0007136536772154,0.0005291730508630272,-0.002239111483019128
3,88,1.0007089716956161,0.0007200052240065694,-0.0028492610975763438
3,89,1.0007046238557813,0.0008432682596268139,-0.003562001971399859
3,90,1.0007002934729292,0.0008461059355596336,-0.004281029176384675
3,91,1.0006980600602802,0.0006916127132187987,-0.004927951469783868
3,92,1.000702396670767,0.0002825315708313337,-0.00535249818622771
3,93,1.0006966110477928,-0.00036509901400424386,-0.005501601683360031
3,94,1.0007539758931687,-0.001160038045717096,-0.0054999152249923374
3,95,1.000761918211513,-0.0025265051023866895,-0.004504678426439031
3,96,1.0006331059499387,-0.0036899026624847525,-0.003435275256250395
3,97,1.0010867729406747,-0.005371973789542617,-0.00300241610357451
3,98,1.000712496205964,-0.012460908194553122,0.0035497114983923817
3,99,0.999546394635642,-0.0169945783913397,0.005921403645882799
3,100,1.0006112077798728,-0.002743991851036301,-0.0006300125528651209
3,101,1.0005319255952545,0.05519069459230917,-0.0019259093421721853
4,1,1.0009843776713874,5.465010682949419e-5,-6.998396267185741e-6
4,2,1.000986261548552,0.00014261184946095243,-4.784819533989444e-5
4,3,1.000985998945091,0.00020227112751198693,-0.00012543083257746126
4,4,1.0009855526659166,0.00025247749820347086,-0.00023500657803589577
4,5,1.00098507817159,0.00030563465886864865,-0.00037115480561275164
4,6,1.0009847369262137,0.00036744051721818535,-0.000531724025440889
4,7,1.0009843620059753,0.0004385801617903285,-0.0007188598909714388
4,8,1.0009838853126014,0.0005184656077120082,-0.0009348048562880835
4,9,1.0009833282743543,0.0006057453122951379,-0.0011791371785944387
4,10,1.0009826944434979,0.0006970941370608204,-0.0014488694644744103
4,11,1.0009820123173845,0.0007870223686550231,-0.0017371923757724544
4,12,1.0009813465335182,0.0008682624082097672,-0.002033157502168405
4,13,1.0009808013882455,0.0009324539513247883,-0.0023212887754317556
4,14,1.0009805262458247,0.0009711181185527838,-0.0025826128288821935
4,15,1.0009807095117442,0.0009767389570042534,-0.0027956880134908566
4,16,1.0009815648063147,0.000943706454072429,-0.002938711728156044
4,17,1.0009833077722854,0.0008688378610627652,-0.002990941157987966
4,18,1.0009861326955078,0.0007513075302176932,-0.0029342583297206517
4,19,1.000990193132,0.0005920463831792299,-0.0027533064908953735
4,20,1.0009955960308572,0.00039291423565665837,-0.0024354207074901916
4,21,1.001002406314953,0.00015606754231320226,-0.0019694875794237145
4,22,1.0010106555540992,-0.00011611157507278419,-0.001345462108764728
4,23,1.0010203352464244,-0.00042039918962815585,-0.0005539622179608091
4,24,1.0010313616650792,-0.0007516124461702113,0.00041262949436188213
4,25,1.001043511260283,-0.0011014443224514278,0.0015587454194893758
4,26,1.0010563430688044,-0.0014577517648240183,0.002883244410314165
4,27,1.001069135888906,-0.0018046618977077774,0.004377749523086471
4,28,1.001080862217039,-0.002123610132865571,0.006025242962629296
4,29,1.001090232818535,-0.0023951985597083546,0.007800452385442302
4,30,1.0010958121575706,-0.002601505526214262,0.009671063742543838
4,31,1.0010962020679315,-0.002728322501097016,0.011600584556387796
4,32,1.0010902301464557,-0.002766778340525706,0.013551145371352569
4,33,1.0010771193639711,-0.0027140377458919006,0.015486740423398896
4,34,1.001056572909765,-0.0025730285722047564,0.017375226779694112
4,35,1.0010288007563832,-0.002351425699629013,0.019190060127636202
4,36,1.0009944539153566,-0.0020602146396534265,0.020910520310362786
4,37,1.0009545412810372,-0.0017121837747940097,0.022521897782601927
4,38,1.0009102954446738,-0.0013205776223298726,0.02401453260947663
4,39,1.0008630754711105,-0.0008980611868236756,0.02538331784856972
4,40,1.0008142460408125,-0.0004560168320362375,0.02662639756921207
4,41,1.0007651219176612,-4.161021551595675e-6,0.027744661535916544
4,42,1.0007168897726557,0.0004495953691911937,0.028740556557061325
4,43,1.0006706016046718,0.0008990980583216744,0.0296178349402894
4,44,1.0006271325820244,0.0013397917222447823,0.03038059286037969
4,45,1.0005872077444733,0.0017684911081494396,0.03103329040220878
4,46,1.000551378424456,0.002183134870504137,0.03157997366390347
4,47,1.0005200642362957,0.0025825309765320757,0.032024497448804604
4,48,1.000493534151747,0.0029661255843756334,0.032369849319641604
4,49,1.0004719517242007,0.003333781969605637,0.03261850047382407
4,50,1.0004553538941665,0.003685593062529762,0.03277176395422519
4,51,1.0004436936798164,0.004021697894824919,0.03283022277982695
4,52,1.0004368155345085,0.004342131488410584,0.032793089199852556
4,53,1.0004344940608378,0.0046466623571094,0.032658689776266445
4,54,1.0004364087051492,0.004934667910459017,0.03242384387754497
4,55,1.0004421796809257,0.005204979875369745,0.03208441669814754
4,56,1.000451347621681,0.005455788561420479,0.03163481187034452
4,57,1.0004634091861242,0.005684504788823861,0.03106862651909844
4,58,1.0004778089874897,0.005887728346452428,0.03037845928814587
4,59,1.0004939764924041,0.0060611720494514335,0.02955668565417163
4,60,1.00051133651325,0.006199770444368874,0.028595897403838076
4,61,1.0005293437936427,0.006297750038937373,0.027489693783446283
4,62,1.0005475123832244,0.006348976834803973,0.02623412800207015
4,63,1.0005654337396028,0.00634725889356727,0.02482809040923556
4,64,1.000582814575874,0.006286981620183892,0.023276062548964402
4,65,1.000599454776617,0.006163637002653364,0.021587134730885152
4,66,1.0006152807217297,0.005974638622042241,0.019779147761092766
4,67,1.0006302620600576,0.005719868617100034,0.017874859163972745
4,68,1.0006444443972953,0.005402331850964422,0.015907404359422984
4,69,1.000657820323336,0.005028326519871702,0.01391207894577026
4,70,1.000670399403322,0.0046075101955076496,0.01193322213417609
4,71,1.0006820638194744,0.004152368889747412,0.010011071583810986
4,72,1.0006927034120061,0.0036775228836443997,0.008190946818501549
4,73,1.0007021014070412,0.0031983668038182366,0.0065060616043587545
4,74,1.0007101700316627,0.0027297520519546374,0.004989825786162956
4,75,1.0007168260536337,0.0022852517543394744,0.003657284742399339
4,76,1.0007220487799262,0.001877251435337827,0.002522971710343003
4,77,1.000725721104511,0.0015144116620752711,0.0015817415407333875
4,78,1.0007281604532998,0.0011968593898991156,0.0008264567929695296
4,79,1.0007299733876978,0.0009171653369187293,0.00023175430529309384
4,80,1.0007315078674162,0.0006728738276000671,-0.00021726485099797613
4,81,1.0007322632130942,0.00047799427798007904,-0.0005405772886073431
4,82,1.0007317209775966,0.0003607928726506138,-0.000753814823042126
4,83,1.0007300885589532,0.0003481934589766408,-0.0009010379902056139
4,84,1.000728143494566,0.00045081353783549673,-0.0010374414998772488
4,85,1.0007266891683557,0.000659758110482932,-0.001234659909932267
4,86,1.0007259810003943,0.0009420800345738498,-0.0015396343807866223
4,87,1.0007249355645522,0.0012423390816138707,-0.0019740055343132625
4,88,1.000724184053088,0.001489188382745854,-0.0025090332146148215
4,89,1.0007219471299922,0.0015991266774392772,-0.0030671963176322637
4,90,1.0007214325082556,0.0015010332317836393,-0.0035578235080082777
4,91,1.0007206245956157,0.0011024937741447092,-0.003826387738212399
4,92,1.0007124989956417,0.0004533337038124803,-0.003854641328136352
4,93,1.0007515104780418,-0.0004070456127370398,-0.003750747902664759
4,94,1.0007275486527805,-0.0018964947346135053,-0.0029353608749678327
4,95,1.0006892895267012,-0.003174796903493095,-0.002464508173308915
4,96,1.0010135779035236,-0.004484900965034956,-0.0020910743609065556
4,97,1.0006129957970005,-0.009824317827403945,0.0025143037269439645
4,98,1.0000852187344966,-0.014343439347235993,0.0030221623465868583
4,99,1.0009220833132626,-0.010687318614204027,-0.0020837347558492455
4,100,1.0013102801106553,-0.0015348596730057327,-0.0024748503819020887
4,101,0.9998108309699784,0.05208458465101038,-0.0005516010038868998
5,1,1.0009840854584646,7.545133278174077e-5,-7.935147000223061e-6
5,2,1.000986152922035,0.00020536488503257317,-5.46154506228129e-5
5,3,1.0009858617062608,0.00030090170759124803,-0.00014295220654316016
5,4,1.0009855575557913,0.00038099456293760853,-0.0002657190665873953
5,5,1.0009851251269786,0.0004582838677543461,-0.00041726621625316616
5,6,1.000984699253204,0.0005411797939148184,-0.000593131640410403
5,7,1.0009843731304404,0.0006328248320839707,-0.0007905568473127706
5,8,1.0009840005399013,0.0007303129376764869,-0.0010085360549101012
5,9,1.0009835263789977,0.0008275163614583271,-0.0012430958575614793
5,10,1.0009829787132791,0.0009157789688975012,-0.0014859955945225962
5,11,1.0009823706715537,0.00098353185835653,-0.001724541428979496
5,12,1.000981734898027,0.0010171257716376295,-0.0019423774014261088
5,13,1.0009811365790224,0.0010024091801826905,-0.0021198868615531605
5,14,1.0009806766172877,0.0009265056017545101,-0.0022363660687389967
5,15,1.000980492999262,0.0007794195215332971,-0.002271580335108169
5,16,1.0009807544048808,0.0005550110353046503,-0.0022080432675730213
5,17,1.0009816471284783,0.0002510310553125041,-0.002031510710255193
5,18,1.0009833670224273,-0.00013176839495722227,-0.0017311808198101
5,19,1.0009861199652197,-0.0005910318856051577,-0.0012978601833994658
5,20,1.0009901378627073,-0.0011239958060414751,-0.0007224940768007226
5,21,1.000995693004457,-0.0017277982944398167,5.806193177169515e-6
5,22,1.001003088887541,-0.0023985673609489425,0.0008995516724793635
5,23,1.0010126006088902,-0.0031295285184868805,0.0019717918472220647
5,24,1.0010243618128767,-0.003908862310329233,0.003232580929867684
5,25,1.0010382261782726,-0.004718233592066252,0.004685614458780516
5,26,1.0010536369432625,-0.005532682655571025,0.006324322389091048
5,27,1.0010695608411937,-0.006322168008651126,0.008130338265239047
5,28,1.0010845101349446,-0.007054562995785891,0.010073162041601053
5,29,1.001096696977745,-0.007699490960030589,0.012113079753579083
5,30,1.0011042593261459,-0.008232052191108851,0.014204726120149587
5,31,1.001105541260396,-0.00863555859049779,0.016302331952872565
5,32,1.0010992997386832,-0.008902715662343191,0.018363380733532067
5,33,1.0010848629696376,-0.009035239596024454,0.020352220479685063
5,34,1.001062137772275,-0.00904225864124971,0.02224096507922572
5,35,1.001031588484994,-0.008938091070382815,0.02401035933871493
5,36,1.0009940921612652,-0.008739911211731111,0.025648332415286912
5,37,1.0009508489274273,-0.008465717794132048,0.027149453573309813