TITLE="CMs_NON_Orthogonal Re = 10000.0"
VARIABLES = X,Y,Rho,U,V
ZONE
I = 101	J = 101
F=POINT
1,1,1.0009009628277432,6.877302305106571e-7,-2.653426762119486e-6
1,2,1.0009019917616289,4.075893214522398e-6,-1.7238705775412512e-5
1,3,1.0009019160446453,4.090756970817186e-6,-3.607675115224788e-5
1,4,1.0009021592988305,4.291401854642845e-6,-5.784509496534517e-5
1,5,1.0009024171595913,4.088941203924366e-6,-8.398313758966882e-5
1,6,1.0009026779835783,2.990320819592031e-6,-0.00011554439214027414
1,7,1.0009029647552605,4.083099405905223e-7,-0.00015333063561352836
1,8,1.0009032910000284,-4.464184417044327e-6,-0.0001984478048408803
1,9,1.0009036505509346,-1.275436359085218e-5,-0.00025194149585473384
1,10,1.0009040284855022,-2.5929380943289844e-5,-0.00031501451313789905
1,11,1.0009043997394034,-4.578384072068326e-5,-0.0003885314340873289
1,12,1.0009047387644192,-7.440597998874878e-5,-0.00047313428999574796
1,13,1.0009050283977565,-0.00011412028651521318,-0.000568718740073326
1,14,1.0009052743868803,-0.00016738904325625754,-0.0006744929938782891
1,15,1.0009055210804576,-0.00023668430162870048,-0.0007885030313909375
1,16,1.0009058687609091,-0.0003243101306867359,-0.0009077305744042992
1,17,1.0009064842495683,-0.00043222196061294807,-0.0010277949445825529
1,18,1.0009076026019208,-0.0005618419104140538,-0.001143199456380499
1,19,1.0009095127314467,-0.0007139234115490582,-0.001247273791464689
1,20,1.0009125306818911,-0.0008884466044229423,-0.0013325509969031955
1,21,1.000916959771704,-0.001084574926066911,-0.0013908732357947337
1,22,1.0009230458405132,-0.0013006403359181007,-0.0014138094087854784
1,23,1.0009309284859984,-0.0015341796338468978,-0.0013928601668221482
1,24,1.0009405958607498,-0.0017819967209103558,-0.001319924374469934
1,25,1.0009518434256202,-0.0020402739743763387,-0.0011876540244867898
1,26,1.0009642438540198,-0.0023047139583903253,-0.0009900440800839898
1,27,1.0009771306187976,-0.0025707258755496122,-0.0007229420412019792
1,28,1.0009896066319484,-0.002833631087620027,-0.000384664009149756
1,29,1.0010005846478538,-0.0030888860510763744,2.3577964244698245e-5
1,30,1.0010088647241833,-0.0033322930724559354,0.0004973432021344519
1,31,1.0010132386458785,-0.0035602064419308567,0.0010289390612012587
1,32,1.0010126097427035,-0.003769724935549007,0.0016076372926665103
1,33,1.001006109462103,-0.003958853179487218,0.002220283906904919
1,34,1.0009931957088367,-0.004126552823130022,0.0028521715412037274
1,35,1.0009737138579133,-0.004272664884344741,0.0034880480794313063
1,36,1.000947913310777,-0.004397730722051849,0.0041130458557908
1,37,1.0009164155342896,-0.004502784560510198,0.004713445414450894
1,38,1.0008801464746069,-0.004589150784000183,0.0052772286528336935
1,39,1.0008402433911108,-0.004658279031833616,0.005794391999375536
1,40,1.0007979582824909,-0.004711612755116193,0.0062570837662254755
1,41,1.0007545646165272,-0.0047505016171939096,0.006659535083881097
1,42,1.0007112849249702,-0.004776142103873733,0.006997928677455201
1,43,1.0006692326374675,-0.004789551407608865,0.007270123483503043
1,44,1.0006293808960742,-0.004791556937511639,0.007475441637099125
1,45,1.0005925398092246,-0.004782806852490157,0.00761433946825584
1,46,1.0005593577287384,-0.004763784793263009,0.007688245431033258
1,47,1.000530318502551,-0.004734836964883485,0.007699253994639954
1,48,1.000505760607192,-0.004696195471496693,0.0076500810422630685
1,49,1.000485878905556,-0.004648010374176117,0.007543788867313238
1,50,1.0004707518164841,-0.004590372299994631,0.007383886627335073
1,51,1.0004603374159458,-0.004523345430851962,0.007174047807704461
1,52,1.0004545058022636,-0.00444698379194986,0.006918376611663037
1,53,1.0004530240864777,-0.0043613667555714745,0.006621041259265786
1,54,1.0004555967676656,-0.0042666022010743815,0.006286749718476419
1,55,1.0004618365470634,-0.004162872016890345,0.005920171377948603
1,56,1.0004713193640622,-0.004050407924827817,0.0055267245273251065
1,57,1.0004835382534538,-0.003929565136002453,0.005111566819834986
1,58,1.000497981879858,-0.003800739897690174,0.004680922283703059
1,59,1.000514067374807,-0.0036645123130912686,0.004240242638096096
1,60,1.0005312513957443,-0.003521441912227953,0.003796560107331151
1,61,1.0005489357866744,-0.0033723661012905115,0.0033550759612656356
1,62,1.0005666174656151,-0.003217952670338066,0.0029235353776834784
1,63,1.0005837587702922,-0.0030593152618833552,0.0025058556432159236
1,64,1.0005999765987696,-0.0028971214418133987,0.002110426571289868
1,65,1.0006148708209537,-0.002732764626445418,0.0017383345758418506
1,66,1.0006282426295359,-0.0025667973599043173,0.0013987723149461674
1,67,1.0006398796949447,-0.0024008377444598543,0.001088234567380917
1,68,1.0006497922347108,-0.0022352812971947397,0.0008170948982456487
1,69,1.0006579650882867,-0.0020718216184326455,0.0005760094449653968
1,70,1.00066457286732,-0.0019108028198507323,0.0003768527685729201
1,71,1.0006697325839466,-0.0017537386046990807,0.0002045458679551418
1,72,1.0006737441174358,-0.0016009645459541739,7.232791791743533e-5
1,73,1.0006768082289732,-0.0014538318629051736,-3.932759163521049e-5
1,74,1.0006791316176324,-0.0013127684741729624,-0.00011553569134750352
1,75,1.0006808374211702,-0.0011786034172073002,-0.0001783275772661282
1,76,1.000682282232418,-0.0010514876691777534,-0.00021180047375088206
1,77,1.0006836863408224,-0.0009323781022210495,-0.00023956306252796605
1,78,1.0006849993453628,-0.0008218482606962918,-0.00024296299634972792
1,79,1.0006859366384344,-0.0007205080105749752,-0.00024431903436590954
1,80,1.0006865425714009,-0.000627749778952289,-0.0002226325258285792
1,81,1.0006870832285548,-0.0005429567523950621,-0.00020263597883176803
1,82,1.0006879439695902,-0.00046477825297031814,-0.0001647799439425751
1,83,1.0006892263739426,-0.00039256229670949237,-0.0001375708507819384
1,84,1.0006909198923362,-0.00032526540344403603,-0.0001012843227037062
1,85,1.000692906218766,-0.00026334370217209307,-8.630900945241193e-5
1,86,1.0006949735682151,-0.00020667731755569086,-7.056815498538471e-5
1,87,1.0006971690873308,-0.00015794814934704933,-8.540571952815708e-5
1,88,1.0006990045902906,-0.00011884582346997609,-0.00010112651644444178
1,89,1.0007004649946234,-9.126386105208653e-5,-0.0001433054215075837
1,90,1.0007015388093639,-7.860923092302524e-5,-0.00016749248728330313
1,91,1.0007017753141052,-7.507014643720066e-5,-0.0001876404517468227
1,92,1.0007109017757863,-0.00010039015352319557,-0.00013673638801511704
1,93,1.0007139362663744,-0.00015656362672408314,3.6480646628933534e-5
1,94,1.000713551909942,-0.00023327700505698434,0.0004261622115426146
1,95,1.0007126564619688,-0.00031838580918974263,0.0010714952181337949
1,96,1.0007694489108012,-0.0002852160824692495,0.0018248696750768555
1,97,1.0009538592504421,-0.0010374808087237391,0.0034809384393428527
1,98,1.0002704261255364,-0.0010973164420342043,0.006632934271732049
1,99,1.0007286114137657,0.0005574658893467324,0.007652147324908823
1,100,1.001907260052068,-0.007706516009811626,0.016414101645005057
1,101,0.9964997226954795,0.02651721516514109,0.013986481323200432
2,1,1.0008997446281527,1.8687802848017413e-5,-5.5118588907922785e-6
2,2,1.0009007563314765,3.909331770753209e-5,-3.486213176761324e-5
2,3,1.0009001928955412,4.695062818149393e-5,-8.187213211900301e-5
2,4,1.0009000222342728,5.64520413231977e-5,-0.00013971527084678264
2,5,1.0008997906998824,6.96750464378601e-5,-0.0002100111792337742
2,6,1.000899438164583,8.60646282473221e-5,-0.00029591978674575867
2,7,1.0008990088921188,0.00010634720376149469,-0.0003997667449724715
2,8,1.0008984838595993,0.00013169253854432959,-0.0005243481936542732
2,9,1.00089784057137,0.0001633156705417231,-0.0006724419104559199
2,10,1.0008970543962143,0.00020235334001498107,-0.0008466921584570845
2,11,1.0008961143665127,0.0002497525233096046,-0.0010487111116994554
2,12,1.0008950335397917,0.00030618931200429654,-0.0012787487213900735
2,13,1.0008938682288455,0.0003719986158601492,-0.0015347844105724191
2,14,1.000892732790325,0.00044713730940099057,-0.001812288449319757
2,15,1.000891816791627,0.0005311846690703254,-0.0021036154407707967
2,16,1.000891388713835,0.0006233849463187665,-0.0023981921197274107
2,17,1.0008917918276297,0.0007227218761101423,-0.0026825146722545107
2,18,1.0008934187770646,0.0008279884537062573,-0.0029408923224725344
2,19,1.0008966783774182,0.0009378266050841345,-0.0031559264798737964
2,20,1.0009019489575728,0.0010507256600738226,-0.0033094456598540506
2,21,1.0009095357399571,0.0011650081186462056,-0.0033830098905266244
2,22,1.000919625759417,0.0012788470204559154,-0.003358681566211852
2,23,1.0009322533373317,0.0013903710521723448,-0.0032194424191670473
2,24,1.0009472648382198,0.0014978820951396703,-0.002949966136388761
2,25,1.0009642928488791,0.0016001716905971084,-0.00253728064412772
2,26,1.0009827301298921,0.0016968629083395706,-0.001971853797224096
2,27,1.0010017220802718,0.0017886781140473947,-0.0012485645166928794
2,28,1.001020177661312,0.0018775351358148295,-0.00036781044204461976
2,29,1.0010368197779755,0.0019664263256846414,0.000663824571450085
2,30,1.0010502630071947,0.0020590788164233822,0.0018331897708294465
2,31,1.0010591279664345,0.002159440331890931,0.003120906600319374
2,32,1.0010621676897202,0.0022710742705053396,0.004502210577438668
2,33,1.0010584037054011,0.0023965983742625383,0.0059484610389230015
2,34,1.0010472300346602,0.002537298371352394,0.007428920410232013
2,35,1.0010284824269435,0.0026929948276973492,0.008912674135800842
2,36,1.0010024418167696,0.0028621519414905048,0.010370295550471295
2,37,1.000969796926994,0.0030421631633788986,0.01177515808344743
2,38,1.0009315547004258,0.0032297204016799763,0.01310428359597744
2,39,1.0008889436693293,0.003421188420696973,0.014338724530946903
2,40,1.0008432991007912,0.0036129234203685083,0.015463628469121238
2,41,1.0007959762266372,0.0038015114360295775,0.016467930228451978
2,42,1.000748264074225,0.0039839157818096415,0.017344013589403715
2,43,1.0007013424855233,0.004157550105813268,0.018087078800147812
2,44,1.000656236812074,0.004320285088187153,0.018694772122179643
2,45,1.0006138169280545,0.004470418872101033,0.019166471242207595
2,46,1.0005747793339097,0.0046066126020013875,0.0195031216317852
2,47,1.0005396731390792,0.004727825047478719,0.01970651532925445
2,48,1.000508890832495,0.004833229214649068,0.019779470806602032
2,49,1.0004827087651051,0.0049221536728513435,0.019725051090305007
2,50,1.0004612717978478,0.004994005591192942,0.019547192802065835
2,51,1.0004446435572492,0.005048240403077724,0.019249715716991828
2,52,1.0004327746970405,0.005084298316924789,0.018837539253496075
2,53,1.000425565705105,0.005101614760888809,0.018315245874038683
2,54,1.0004228102966626,0.005099568697901128,0.01768910397839323
2,55,1.0004242798627916,0.005077545814580099,0.01696482894119162
2,56,1.0004296323456414,0.005034892779336229,0.01615075247002789
2,57,1.0004385333227979,0.004971047148564517,0.015254252593654332
2,58,1.0004505173563565,0.004885486504731324,0.01428657365423982
2,59,1.0004651668065512,0.004777936438469505,0.01325715883285654
2,60,1.0004819079745197,0.004648294165622298,0.012180843691610285
2,61,1.0005002742814213,0.004496912280498364,0.011069031598236448
2,62,1.0005196146141924,0.004324464172491012,0.009940274988640448
2,63,1.0005394697886647,0.004132274335097769,0.008806923805871511
2,64,1.0005591671550644,0.003922092051922592,0.007690481029376063
2,65,1.0005783341526757,0.003696402491625472,0.00660209764007407
2,66,1.0005963550221502,0.00345808845747251,0.005564488289564613
2,67,1.0006130298213392,0.003210666410848358,0.004584578241763126
2,68,1.0006278791555268,0.0029578529474974984,0.0036839332558525313
2,69,1.0006409371808498,0.0027036552731267466,0.002862223031077999
2,70,1.0006519121441886,0.0024518965913225147,0.002137681516574438
2,71,1.0006610697329037,0.002206393429874794,0.0015009501032224282
2,72,1.0006682835977758,0.0019704191667158683,0.0009658176192756355
2,73,1.0006740294942085,0.0017465580675538378,0.0005140307140884572
2,74,1.0006782988058445,0.0015364930305650734,0.00015573027952141863
2,75,1.0006815403970863,0.0013419847830817163,-0.00013357997147049356
2,76,1.0006837100697512,0.0011643959238547715,-0.00034572813129450457
2,77,1.000685511223016,0.0010033152471025043,-0.0005100156250177994
2,78,1.0006870152804697,0.0008561742886085578,-0.0006172132274913784
2,79,1.0006884368866653,0.0007210026662149468,-0.000693857223521527
2,80,1.0006891482879565,0.0005987684475225747,-0.0007243829891556324
2,81,1.0006893511543928,0.0004926973659942302,-0.0007372933978789519
2,82,1.0006889663849148,0.0004060121671171181,-0.0007240392681892981
2,83,1.000688679635238,0.0003404234637226513,-0.0007262423018989247
2,84,1.0006881929328957,0.00029568457001714617,-0.0007429550970747392
2,85,1.0006877463458652,0.0002714762723271618,-0.0008208740523351656
2,86,1.0006868250336547,0.00026591980192485886,-0.0009558145976604523
2,87,1.000685236028932,0.0002744817645910942,-0.0011874933969318671
2,88,1.000683118926565,0.0002868217628945365,-0.0014929482136640901
2,89,1.0006800975652306,0.00028840927554275744,-0.0018829318925489896
2,90,1.0006774308165949,0.0002662844563967589,-0.0023026523418009626
2,91,1.0006782371680436,0.00018542169309384692,-0.0027134314641783803
2,92,1.0006824854120948,1.2606887865925864e-5,-0.0030031274105349905
2,93,1.000707082434961,-0.00034324836328355264,-0.003071076020811743
2,94,1.000715541588619,-0.0008079192688124127,-0.0027091260716864164
2,95,1.0007712196071206,-0.0011363996504371414,-0.00208235810535884
2,96,1.0008346423448198,-0.002250981975535254,-0.0003723597936778872
2,97,1.0007359438281573,-0.0037170241491927157,0.0020200349365383672
2,98,1.0014887622124269,-0.004471282627713005,0.0039548006502745595
2,99,1.000392609541254,-0.010766357161784361,0.01614440044131773
2,100,0.999611576709899,-0.012212579223679458,0.021800620022523753
2,101,1.00375955763071,0.05153332839774174,0.005625034719493174
3,1,1.0008997881616046,3.076996305306068e-5,-5.42523364141328e-6
3,2,1.000901371349313,7.959265637734928e-5,-3.8507710704449985e-5
3,3,1.000900895911213,0.00010576519490349748,-0.00010042665784674967
3,4,1.00090044528952,0.00012840285577025504,-0.0001850477902487218
3,5,1.0009001349112323,0.00015539611812117173,-0.00028911328775867097
3,6,1.0008997695663686,0.00018660648764080842,-0.0004152237123450375
3,7,1.0008992873919933,0.00022110756491995848,-0.0005670142062912517
3,8,1.0008986992128188,0.00025844225943546677,-0.0007476539617522892
3,9,1.000897973288385,0.00029722753558336813,-0.0009597349882379559
3,10,1.0008970877394967,0.00033463757310852037,-0.001204843399756445
3,11,1.0008960418765354,0.00036631464191112605,-0.0014822221755215002
3,12,1.0008948672663796,0.0003864114755269194,-0.0017882112767549077
3,13,1.0008936438928433,0.00038783198017097747,-0.0021152409036319323
3,14,1.000892513205214,0.0003626652289118956,-0.0024518659120555215
3,15,1.0008916856439034,0.0003028205784442129,-0.002782670542140468
3,16,1.000891436989552,0.0002007893113725481,-0.003089293361818092
3,17,1.0008920916510449,5.0380222069746945e-5,-0.0033512835069045986
3,18,1.0008939952434792,-0.00015274255668900648,-0.003547680945315492
3,19,1.0008974803258481,-0.0004108222166533776,-0.0036579523269835317
3,20,1.000902834261699,-0.0007240457014347399,-0.0036630873481807605
3,21,1.00091027179191,-0.0010907242974492182,-0.0035457974338304363
3,22,1.0009199157199922,-0.0015074446587536206,-0.003290864049654248
3,23,1.00093177862546,-0.0019690610662315743,-0.0028849868386783078
3,24,1.0009457405951372,-0.0024685022888719637,-0.002317255706149223
3,25,1.0009615146887114,-0.0029965001985833447,-0.0015796043528551584
3,26,1.0009786057096834,-0.0035414361591240943,-0.0006680093485269251
3,27,1.000996274710492,-0.004089502874737889,0.00041651082105803946
3,28,1.0010135274763288,-0.0046252804864399455,0.0016666715502203862
3,29,1.0010291404136942,-0.005132710684224557,0.003068482573405767
3,30,1.001041732978848,-0.005596357105828776,0.004601169154989063
3,31,1.001049890547515,-0.006002765818897063,0.006238243821017298
3,32,1.001052318846135,-0.0063416697311374,0.007948990823027375
3,33,1.0010480035685636,-0.006606789368675096,0.009700735735060136
3,34,1.0010363329974221,-0.006796072203343505,0.01146087640098594
3,35,1.0010171674380064,-0.006911373299998411,0.013198961305312508
3,36,1.00099083556856,-0.006957705881931429,0.014887933084212516
3,37,1.0009580798404294,-0.006942269371953946,0.01650509960974475
3,38,1.0009199541383813,-0.006873447648075312,0.018032228917392607
3,39,1.000877714975504,-0.006759932795276797,0.019455540807154056
3,40,1.0008327043101888,-0.006610046488161713,0.02076508413045168
3,41,1.000786260633019,-0.0064312896773699646,0.021954284568972228
3,42,1.00073963899016,-0.006230089183756766,0.023019115773723436
3,43,1.000693968896376,-0.006011715763189449,0.023957605670566425
3,44,1.0006502184928052,-0.005780311131690633,0.024769099074405696
3,45,1.0006091912033468,-0.005539004081844428,0.025453892516021714
3,46,1.0005715193441693,-0.005290055903098206,0.026012699639055007
3,47,1.0005376809402415,-0.005035043199877574,0.02644642805155338
3,48,1.00050800688907,-0.004775021666837623,0.026755873889131237
3,49,1.000482702758597,-0.004510710617892808,0.026941578822325746
3,50,1.000461860445608,-0.004242632224798041,0.02700377823880868
3,51,1.0004454761079506,-0.003971278201959155,0.02694224131376056
3,52,1.000433464259425,-0.003697211513279277,0.026756548851253545
3,53,1.0004256672781207,-0.0034212142479005127,0.026445783359092128
3,54,1.0004218746181852,-0.0031443448482541035,0.02600930157785787
3,55,1.0004218206615516,-0.0028680654333964536,0.02544607114313289
3,56,1.0004252142231962,-0.002594238938383658,0.024756224129314826
3,57,1.0004317204056257,-0.0023252230640517933,0.023939700312923584
3,58,1.0004410062913804,-0.0020637781984778176,0.02299901843905741
3,59,1.0004527000586068,-0.0018131043349501272,0.021936653234718856
3,60,1.0004664581998175,-0.0015766247533608047,0.02075963279434478
3,61,1.0004818935709385,-0.0013579462957629236,0.01947473564101878
3,62,1.0004986684051178,-0.0011605024636864884,0.018095706016261277
3,63,1.0005163860095945,-0.000987451240199316,0.016634951219304625
3,64,1.0005347124223496,-0.0008412133474961273,0.015114360934152304
3,65,1.000553236377031,-0.000723389227913378,0.013551856703920957
3,66,1.000571619731889,-0.000634308495910316,0.011977006964074763
3,67,1.000589447631926,-0.0005730842497249914,0.01041075538858196
3,68,1.0006063897512973,-0.000537345899961658,0.008887218884528819
3,69,1.0006220779200619,-0.0005235649111671644,0.0074254167571167215
3,70,1.0006362490273213,-0.0005271016034823442,0.006058577936889579
3,71,1.000648680125492,-0.0005426411751122443,0.0047977111254734785
3,72,1.0006592308589792,-0.0005645226437853344,0.0036694331534365514
3,73,1.0006678800695297,-0.0005875670433702571,0.0026720798719608095
3,74,1.0006747028789256,-0.0006075971019187929,0.0018218531703018842
3,75,1.0006799173637668,-0.0006208826341903758,0.0011033842666033813
3,76,1.0006835973810586,-0.0006237092901867559,0.000523572908561073
3,77,1.0006860328247478,-0.0006146156379835903,5.5946705165182664e-5
3,78,1.0006876383555878,-0.0005971405104193289,-0.0003004452945781165
3,79,1.0006889120925924,-0.0005770302696787916,-0.0005768483145665924
3,80,1.0006896601219442,-0.0005547093678594586,-0.0007695543760560762
3,81,1.0006895224530308,-0.0005216066780253789,-0.0009060281486393971
3,82,1.0006882742271626,-0.0004638087423133668,-0.0009886305306011048
3,83,1.0006863061353353,-0.00036930699453435484,-0.0010654769985778505
3,84,1.0006839982429592,-0.00023285785817830156,-0.0011621711116861094
3,85,1.000681651043074,-5.6113772068129626e-5,-0.0013404573127470134
3,86,1.0006790873169402,0.00015196282615972766,-0.0016222576915036204
3,87,1.0006763303562323,0.00036819779443602186,-0.002046691356568868
3,88,1.0006721072784157,0.0005616460783295013,-0.002591106889844131
3,89,1.0006682767328654,0.0006956932669511376,-0.0032463723008175306
3,90,1.0006643781190323,0.0007207821518202413,-0.003918795486780932
3,91,1.0006620350901083,0.0005999324406528938,-0.004547162589522112
3,92,1.0006658367063541,0.00023078124457522924,-0.004978054528043064
3,93,1.0006588600655943,-0.0003791921866928928,-0.005158790387805551
3,94,1.000713824550663,-0.0011348989305603925,-0.005204101675955696
3,95,1.0007194749742,-0.0024602012133073067,-0.004270821991878519
3,96,1.0005897741649306,-0.0035802174960794975,-0.0032650979831457005
3,97,1.0010412562265805,-0.005211102669938943,-0.002929947761911175
3,98,1.0006686961012996,-0.012319524184519296,0.0035692289598011845
3,99,0.9995114128746552,-0.016954107404395,0.00593776126322884
3,100,1.0005686646018783,-0.0027577660382978792,-0.0006255319931431356
3,101,1.0004859196817042,0.055179698209221396,-0.0019293027335055874
4,1,1.0008994304976977,5.291391458729766e-5,-6.70141469667764e-6
4,2,1.0009012292959971,0.0001363979636273483,-4.5850250146227316e-5
4,3,1.0009009755267038,0.00019371732657688724,-0.00012030162572606891
4,4,1.000900547923674,0.0002430588660698956,-0.00022576545803458113
4,5,1.0009000853797223,0.0002960322204173209,-0.0003573022084699777
4,6,1.0008997429843154,0.00035822964786068074,-0.0005131127661572446
4,7,1.000899364692226,0.0004307341295859615,-0.0006954842259370453
4,8,1.0008988863663204,0.0005136013005384077,-0.0009069102449976652
4,9,1.000898327288316,0.0006063209127636777,-0.0011474088761599065
4,10,1.0008976898345021,0.0007066216941471846,-0.001414641794544607
4,11,1.0008969999504644,0.0008102170886799279,-0.001702600285235745
4,12,1.0008963175319678,0.0009110941800336698,-0.002001283047290045
4,13,1.0008957398169516,0.0010020865936868004,-0.0022961756425621317
4,14,1.0008954064848585,0.0010757244823117725,-0.002569199933184905
4,15,1.00089549370548,0.0011252027552456799,-0.0027995893120366226
4,16,1.0008962009367226,0.0011452552574409013,-0.0029659574830173158
4,17,1.0008977287439695,0.0011326722299189005,-0.003047691925912531
4,18,1.0009002564126275,0.0010862839157010666,-0.003026648645135312
4,19,1.0009039227238339,0.001006432937963045,-0.0028874231600410226
4,20,1.0009088193924351,0.0008941873431332175,-0.002617474611835627
4,21,1.000914995149379,0.0007506751701015085,-0.0022060412248561243
4,22,1.0009224672764776,0.0005769037011870873,-0.0016436089180960152
4,23,1.0009312236043806,0.00037423697872239475,-0.0009212413560040765
4,24,1.0009412020546156,0.0001454344880598448,-3.135410300302642e-5
4,25,1.000952241283742,-0.00010411900979926215,0.0010312198998412797
4,26,1.0009640129290174,-0.00036546306465860216,0.0022670212261584216
4,27,1.0009759575827633,-0.0006257931168968415,0.003670293894811352
4,28,1.0009872436624492,-0.0008690656753695818,0.005227290061174555
4,29,1.0009967813972365,-0.0010774717335393844,0.006916194867794868
4,30,1.0010033006269121,-0.0012335219939712796,0.008707777244249228
4,31,1.0010055014375943,-0.0013222979341643737,0.01056781130559977
4,32,1.0010022268680663,-0.001333319623359242,0.012459623955814837
4,33,1.0009926353349579,-0.0012616307258281455,0.014347350720799668
4,34,1.0009763050221148,-0.001107933558475332,0.01619811736298889
4,35,1.0009532854843357,-0.000877903800950649,0.017984080351484757
4,36,1.0009240577702658,-0.0005809552115655937,0.019682938127081443
4,37,1.000889469002879,-0.00022880417087158835,0.02127837513405945
4,38,1.0008506107275978,0.00016590454633864598,0.022759252058079726
4,39,1.0008087249122202,0.0005907168581707163,0.02411921685449092
4,40,1.0007650845172795,0.0010341780924171587,0.02535541789127814
4,41,1.0007209332580702,0.0014863164097422448,0.02646801435153064
4,42,1.0006774051271303,0.0019388671705057123,0.027458935817344585
4,43,1.0006355113903114,0.0023852848721845803,0.028331621483666518
4,44,1.000596096964692,0.002820627846029775,0.02908998646106143
4,45,1.0005598617091844,0.0032413514585586172,0.029738444693280318
4,46,1.0005273376396855,0.0036450748731126563,0.030281056691643955
4,47,1.0004989267639037,0.004030326487859628,0.03072178263647939
4,48,1.0004748850796237,0.004396314303242161,0.03106373229635264
4,49,1.0004553642168295,0.0047426973137273815,0.031309578911359534
4,50,1.0004403949359648,0.005069401400365334,0.03146084179350581
4,51,1.0004299259973326,0.005376428962781163,0.03151840946771409
4,52,1.0004238058940544,0.005663722615076776,0.031481823142235445
4,53,1.0004218166338623,0.00593099995187478,0.03134987918452267
4,54,1.0004236566809128,0.00617765889626682,0.031119941579831424
4,55,1.0004289696084894,0.006402623845180162,0.03078860393076737
4,56,1.0004373341858528,0.006604298655142948,0.03035115150220214
4,57,1.0004482884412271,0.006780426654723423,0.029802243264296934
4,58,1.0004613346134998,0.006928122762441966,0.02913578000274686
4,59,1.0004759575526379,0.0070437777960154135,0.028345480216675274
4,60,1.000491651775318,0.007123230263225042,0.027425583659227436
4,61,1.0005079279808873,0.0071617732367108425,0.02637097830097587
4,62,1.0005243651647253,0.007154536315020279,0.025179340265477794
4,63,1.0005405904797657,0.007096654222954947,0.023850056420403023
4,64,1.0005563517175124,0.006983882835045454,0.022388511953745294
4,65,1.0005714486215878,0.0068129215478754295,0.020802461243859573
4,66,1.000585819983685,0.006582164983915997,0.01910918611003333
4,67,1.000599407832793,0.006292028209974627,0.017327417412596316
4,68,1.0006122646720859,0.005945565629397611,0.015488084712179285
4,69,1.0006243580260132,0.005548509543573019,0.013619836894474052
4,70,1.000635729809954,0.005109427865337846,0.011764152214000009
4,71,1.0006462658533286,0.004639227516837346,0.009953393895329548
4,72,1.0006559225785012,0.004150718185421144,0.008231348125140972
4,73,1.000664496283989,0.0036575052496661277,0.006624336937624806
4,74,1.000671938416215,0.0031729423712036115,0.005167739331287117
4,75,1.0006781417183648,0.002709221637630435,0.003872218870381479
4,76,1.000683146798355,0.002277576780361384,0.002757649534945132
4,77,1.0006868177067902,0.00188702146477254,0.001816960907493427
4,78,1.0006893314802643,0.0015406111267930185,0.0010524520868472878
4,79,1.0006911002242265,0.0012337085180885849,0.0004381623944810824
4,80,1.0006925987834694,0.0009620206160196042,-3.4408340558247394e-5
4,81,1.0006935692735468,0.0007330560528640771,-0.0003899194143940601
4,82,1.0006935231136125,0.0005694367302599971,-0.0006344243920530951
4,83,1.0006923597113329,0.0004980213883896563,-0.0008069773902956719
4,84,1.0006906106293738,0.0005345226320741384,-0.000946466321174655
4,85,1.0006890679209888,0.0006774735567857327,-0.0011232384631980241
4,86,1.0006882901834306,0.0009020873346085338,-0.0013812225754232651
4,87,1.0006873702734418,0.001159684615189837,-0.0017562180181084884
4,88,1.0006870330284734,0.0013849679246792893,-0.0022288378328036563
4,89,1.0006854107729013,0.0015000199313579296,-0.0027408447875559745
4,90,1.000685436613274,0.001435336399675922,-0.0032095319483328223
4,91,1.0006850288604636,0.0010905816333271069,-0.003490383501225672
4,92,1.0006765530333437,0.0004988510961984702,-0.0035531471319752844
4,93,1.0007146762670192,-0.0003094298747886691,-0.003505119082653421
4,94,1.0006898952811027,-0.0017587101618208388,-0.0027451037418358224
4,95,1.000650348007908,-0.003000787288228702,-0.002320469015016528
4,96,1.0009726831347006,-0.004248071146064207,-0.002008274150123116
4,97,1.0005725059861186,-0.009576052302414874,0.0025735307973100154
4,98,1.0000493906849313,-0.014166797169077653,0.0030848152241311332
4,99,1.000880872559526,-0.010587585332496947,-0.0020694290035153605
4,100,1.001265790139522,-0.001522945639884102,-0.002484273156594729
4,101,0.9997711259261984,0.052074897523409144,-0.0005522297421024374
5,1,1.0008991533395644,7.072517863589545e-5,-7.655320964388855e-6
5,2,1.000901142778257,0.000194529131470782,-5.277728793188881e-5
5,3,1.0009008589445638,0.00028610710205483845,-0.0001383679363046479
5,4,1.0009005566111617,0.000363540459767797,-0.00025768719668606754
5,5,1.0009001257301968,0.00043848680640345023,-0.0004054754877122007
5,6,1.0008996941184487,0.0005187509049952316,-0.0005777584735041443
5,7,1.0008993476673185,0.0006071742322648582,-0.0007722476347704571
5,8,1.000898944676663,0.0007007930933652379,-0.0009884140107437476
5,9,1.0008984279279476,0.0007934413099249425,-0.0012229082920048042
5,10,1.0008978170795735,0.0008763457194864501,-0.0014683198698429328
5,11,1.0008971172581722,0.0009377178377337777,-0.0017128391547716457
5,12,1.0008963523103596,0.0009635305242456003,-0.0019409657018820265
5,13,1.0008955789614151,0.0009390467723744579,-0.002133748885058685
5,14,1.0008948924477854,0.0008505976067952343,-0.0022708818109636888
5,15,1.0008944308821406,0.0006872674969512944,-0.002332188067738782
5,16,1.000894371260743,0.0004420400946118947,-0.002300007750034972
5,17,1.0008949173937813,0.00011206548938202349,-0.0021598655422509125
5,18,1.0008962895768798,-0.00030201172053258003,-0.0019009744471212054
5,19,1.0008987198804065,-0.0007973428605105456,-0.0015146277705697304
5,20,1.0009024619909845,-0.0013701509713708734,-0.0009928388453801765
5,21,1.000907803581981,-0.00201632431825004,-0.0003261642016573767
5,22,1.0009150634435993,-0.0027309178479014494,0.0004965354166693036
5,23,1.000924546133194,-0.003506653922562781,0.0014876645930136832
5,24,1.0009364444651423,-0.004331992460874814,0.0026579324470182835
5,25,1.000950709183814,-0.005189600765250346,0.004013320783603147
5,26,1.0009669148873497,-0.006055926224688913,0.0055510738571068145
5,27,1.0009841747799244,-0.006902249898177904,0.007257652290463785
5,28,1.0010011302788944,-0.007697172063185799,0.009107547670699961
5,29,1.0010160676091002,-0.008410089844712237,0.011065300458078763
5,30,1.001027118985908,-0.00901485519087174,0.013088367539928626
5,31,1.0010325386155172,-0.00949273696109244,0.015132080758790207
5,32,1.0010309293446036,-0.009834020329763894,0.017153425380874915
5,33,1.0010214309743948,-0.010038068906575735,0.019115061404244665
5,34,1.0010037616564467,-0.010112071602119568,0.020986749298209442
5,35,1.0009782192565753,-0.01006900185485973,0.022746689431028682
5,36,1.0009455517441452,-0.009925311610159363,0.02438043282917819
5,37,1.000906868142013,-0.009698817772053949,0.02588053365861397