TITLE="CMs_NON_Orthogonal Re = 10000.0"
VARIABLES = X,Y,Rho,U,V
ZONE
I = 101	J = 101
F=POINT
1,1,1.0005408740542334,2.85428180061587e-6,-4.464722696702789e-6
1,2,1.0005428658055278,1.1484488234424702e-5,-3.113920324394706e-5
1,3,1.000542644958026,1.5104350051257268e-5,-7.628596359051251e-5
1,4,1.000541262760166,1.622457303213154e-5,-0.00012888534396847634
1,5,1.000539564402366,1.854133007373392e-5,-0.00018847309634859393
1,6,1.000537483366573,2.20010198537788e-5,-0.00026095765753215066
1,7,1.0005347730400456,2.550161335450185e-5,-0.00034989610831174037
1,8,1.0005313812723047,2.8851189709884736e-5,-0.0004585797010820059
1,9,1.0005273196643443,3.2200889530251355e-5,-0.0005907758962181676
1,10,1.0005225138703338,3.535988325082977e-5,-0.0007520124840043903
1,11,1.0005169064405888,3.790291487328971e-5,-0.0009470582023470643
1,12,1.0005105651842816,3.934297096385897e-5,-0.0011808046844317716
1,13,1.000503649129107,3.885178814370936e-5,-0.0014561716129620809
1,14,1.0004964114235997,3.50035159902696e-5,-0.0017736300650480787
1,15,1.0004893123145726,2.5772997889357273e-5,-0.00212770220260316
1,16,1.0004832230110297,8.875976944170993e-6,-0.0025060250021049194
1,17,1.0004796134603677,-1.779546242966487e-5,-0.0028874033992484153
1,18,1.0004806138819462,-5.559164726523134e-5,-0.003243441713190872
1,19,1.00048878564709,-0.00010468590092244924,-0.0035404717272211335
1,20,1.0005065977713201,-0.00016387220086237845,-0.0037443752917297327
1,21,1.0005357492022398,-0.00023077671498876793,-0.0038244111159741025
1,22,1.0005766217946537,-0.00030228274607285233,-0.0037573030047366868
1,23,1.0006280302445154,-0.00037504461940910744,-0.0035288090027239772
1,24,1.0006873077757992,-0.00044584756147740074,-0.0031347547887348552
1,25,1.0007506265697999,-0.0005118098302770916,-0.002580238095649201
1,26,1.0008134705070173,-0.0005704355881752999,-0.0018791098445413825
1,27,1.0008711435508526,-0.0006196458716018961,-0.0010525091583822813
1,28,1.000919245522391,-0.0006578615839852121,-0.00012785274288821735
1,29,1.0009541212620017,-0.0006841747964685598,0.0008632789957237492
1,30,1.0009732932414366,-0.0006984503206263852,0.0018870416160472856
1,31,1.0009757233764458,-0.000701246909998596,0.0029098820927048056
1,32,1.0009617765952132,-0.0006936523504140995,0.003900123241675953
1,33,1.000932976260688,-0.0006771897362381685,0.0048298500938203605
1,34,1.0008917033192934,-0.0006537268171008514,0.005675934189889446
1,35,1.0008408795823647,-0.000625293537191579,0.0064212516907723284
1,36,1.0007836228576894,-0.0005938412775057098,0.007054616926509104
1,37,1.000722932885929,-0.0005610564312568406,0.007570704898011079
1,38,1.0006614579899666,-0.0005282657236673762,0.007968888910960318
1,39,1.0006013724452965,-0.000496418631605906,0.008252552668428267
1,40,1.000544332307669,-0.0004661208236770695,0.008427710362782614
1,41,1.0004915018889626,-0.0004376963548622445,0.00850244945649666
1,42,1.0004436070776532,-0.00041126380656381463,0.008485813083255966
1,43,1.0004010161438759,-0.00038680452240383507,0.00838764211252835
1,44,1.0003638091405433,-0.00036422406761338165,0.008217777535854528
1,45,1.0003318540491701,-0.0003433909852660071,0.007986250322515017
1,46,1.0003048576240974,-0.00032416990734944316,0.007702653668024423
1,47,1.0002824227345184,-0.00030642992398966466,0.007376543386804674
1,48,1.0002640785202084,-0.0002900575446214149,0.007016812289886683
1,49,1.0002493236017747,-0.0002749451560184164,0.006632207224663959
1,50,1.0002376410542373,-0.0002609978124914108,0.0062305890211719105
1,51,1.0002285327563272,-0.0002481132514888273,0.005819551549302938
1,52,1.0002215213667551,-0.00023619470455402586,0.00540550777407268
1,53,1.000216177329974,-0.00022512878548001846,0.0049944668238306265
1,54,1.0002121068598016,-0.00021481332026501815,0.004590915997030349
1,55,1.0002089698467913,-0.00020513220310848287,0.004198859698597549
1,56,1.0002064509677242,-0.00019599755160292802,0.0038204499437956264
1,57,1.0002042732314116,-0.00018730198555210194,0.00345738986440423
1,58,1.000202165858759,-0.0001789790925986579,0.003109181818877043
1,59,1.0001998889490802,-0.00017094817247987235,0.002775055133403528
1,60,1.0001972013885037,-0.00016324744522742024,0.002451811971340032
1,61,1.0001938953882188,-0.00015597850346464555,0.002136752746471149
1,62,1.0001897805653883,-0.00014948298432646316,0.0018252028833194286
1,63,1.0001847676869946,-0.00014415941261089566,0.0015148206271104957
1,64,1.0001789028915047,-0.0001405913394410659,0.0012022776883549306
1,65,1.0001724651297375,-0.0001391794273644743,0.0008887487179799375
1,66,1.0001659385342636,-0.00014028489254443044,0.0005745977526553579
1,67,1.0001600457577389,-0.00014376742596103104,0.0002657979977263194
1,68,1.0001556445383841,-0.00014944678469498292,-3.415715623926175e-5
1,69,1.0001535473456071,-0.00015664802834546457,-0.0003160863782794786
1,70,1.0001544214587437,-0.0001645994705652812,-0.0005761444576794895
1,71,1.000158911353865,-0.00017236110595838613,-0.000805386032537024
1,72,1.000167304074082,-0.00017949440791264205,-0.0010022087217950607
1,73,1.0001793151846115,-0.00018500212003169197,-0.0011593893913555142
1,74,1.0001948824017448,-0.0001879709546351009,-0.0012796762747835958
1,75,1.0002143369607315,-0.00018920401778231628,-0.001359024567616586
1,76,1.0002370500072557,-0.0001912405525867725,-0.001397261370273509
1,77,1.0002612158007025,-0.00019501011127048807,-0.001381474004382395
1,78,1.000285693853377,-0.00019830552818041671,-0.001309026673708527
1,79,1.0003107064813077,-0.00019773475640895755,-0.0011783100246944
1,80,1.0003366038260082,-0.00019139960840341662,-0.0010049781636394467
1,81,1.000362807401494,-0.0001793291830644283,-0.0008004384093411652
1,82,1.0003881669458365,-0.000162690405154873,-0.0005840123398824207
1,83,1.0004116085701513,-0.0001430235048248793,-0.00036466891649768743
1,84,1.000432458619185,-0.00012200980022513231,-0.000157420677912885
1,85,1.0004504473127285,-0.00010163591159163788,3.4197517564394945e-5
1,86,1.0004654179798163,-8.276295481593478e-5,0.00020103416135068338
1,87,1.0004778806381311,-6.606000047594514e-5,0.0003438608217949581
1,88,1.0004877000681276,-5.2339146959124904e-5,0.0004578040748750099
1,89,1.0004947506085917,-4.140861665118377e-5,0.0005486846782805566
1,90,1.0004997830094127,-3.72324519509546e-5,0.0006210505745986868
1,91,1.0005013495537827,-3.416542652758283e-5,0.0006879412196621068
1,92,1.0005094071898226,-5.323253384475861e-5,0.0007743203422101127
1,93,1.0005073214976499,-0.00010373534071930944,0.0009602180626665769
1,94,1.0004950699280948,-0.00016432663113262404,0.001308630195458615
1,95,1.0004912361641891,-0.0002485145124054845,0.0018819567771851163
1,96,1.00052605505332,-0.00020174134954033615,0.002529573227176045
1,97,1.000690980959517,-0.000924292405397416,0.004019081241082644
1,98,1.0000322811671762,-0.0009948365940055236,0.00693954411849459
1,99,1.000457443618327,0.0006794787742049565,0.007713824731429529
1,100,1.0016369480313805,-0.007694883379992793,0.01633248380841286
1,101,0.996289798911917,0.026504610474108372,0.013980993357648274
2,1,1.0005379716464566,3.0007885413682093e-5,-1.0187141622038635e-5
2,2,1.000539955658032,8.275053786900345e-5,-7.16742057259898e-5
2,3,1.0005388492967462,0.00011469064185317073,-0.00019247762958303765
2,4,1.0005360758193214,0.00012912628322327046,-0.00034320242963602226
2,5,1.000533120919835,0.00015138315420741168,-0.0005137647926140667
2,6,1.0005297341468764,0.00018636047604832977,-0.0007174047394998724
2,7,1.0005252750407685,0.0002295997581681924,-0.0009664906965033145
2,8,1.000519576632587,0.0002812330365124227,-0.0012695171224018145
2,9,1.0005126307121575,0.00034446897255875934,-0.0016355180135545155
2,10,1.0005042865760543,0.0004205283395544402,-0.002076218105850544
2,11,1.0004944570108025,0.0005085528515716644,-0.002601871805141253
2,12,1.0004832959252996,0.0006064335088389507,-0.0032204712703555335
2,13,1.0004712022508644,0.0007091381688682102,-0.003934086403641563
2,14,1.0004588664036542,0.0008066796941815192,-0.0047350743373741015
2,15,1.000447470454946,0.0008840318445151754,-0.005599099925546198
2,16,1.0004388857561561,0.0009231909991570069,-0.006482556983962498
2,17,1.0004357089578462,0.0009068363441483967,-0.00732254269862198
2,18,1.0004409919860568,0.0008227003146373215,-0.008044071620866471
2,19,1.0004576638074745,0.000667045228851918,-0.00856942797391715
2,20,1.0004878122268255,0.00044571766690363994,-0.008830057810863644
2,21,1.0005321128449236,0.00017248164481308784,-0.008774321230189567
2,22,1.0005895941492535,-0.0001342535737341609,-0.008372370369924824
2,23,1.0006577341285963,-0.0004547223109227255,-0.007615479320018473
2,24,1.0007327761484806,-0.0007700458438198782,-0.006514194424403034
2,25,1.0008101435782426,-0.0010632712730873205,-0.005094395978624653
2,26,1.0008848648386823,-0.0013196367233487222,-0.0033949372150703476
2,27,1.0009519711382784,-0.0015267674511655104,-0.0014645489875098165
2,28,1.0010069328468059,-0.0016752747174790942,0.0006401057953575234
2,29,1.001046162332568,-0.0017595381250498378,0.0028579528618894886
2,30,1.0010673901763245,-0.0017779724210574182,0.005125934820215627
2,31,1.0010697695310597,-0.0017326875591515633,0.007382335880936442
2,32,1.0010537701313784,-0.0016290736796071865,0.009568897187207086
2,33,1.0010210331024565,-0.001475479971895044,0.011634223012039499
2,34,1.0009741339674934,-0.0012825591501433367,0.013535672434186621
2,35,1.0009162631577107,-0.0010620844762085223,0.015241412970072685
2,36,1.0008508232813373,-0.0008256050760610112,0.01673000525130751
2,37,1.0007811025348265,-0.0005833959839189328,0.01799011813103481
2,38,1.0007100104699362,-0.0003438874911443572,0.019018351153242807
2,39,1.000639964162959,-0.0001135067078911872,0.019818035897502573
2,40,1.000572827197523,0.00010318454735946593,0.02039683477587392
2,41,1.000509959413816,0.0003031912462402229,0.020765886309238105
2,42,1.0004522597571701,0.0004847172491843242,0.020937975593237398
2,43,1.0004002688474662,0.0006468208135477299,0.02092741217371637
2,44,1.0003542243009336,0.0007891225843535378,0.020748810745937426
2,45,1.0003141509772524,0.0009115987122782477,0.02041756690941465
2,46,1.0002798941328637,0.0010144442311718301,0.019948965675970737
2,47,1.0002511824151414,0.0010980106832415347,0.019358985847985254
2,48,1.000227640386548,0.0011627922939549088,0.018663413075570377
2,49,1.0002088308227002,0.0012094523870213765,0.017878757226686488
2,50,1.000194258413765,0.0012388685508052028,0.017021112998918703
2,51,1.0001833999945422,0.0012521802158333623,0.01610709874348774
2,52,1.0001757086518086,0.0012508337283261418,0.015152310918635484
2,53,1.0001706345605428,0.0012365999612974324,0.014172342822697602
2,54,1.0001676327933742,0.0012115827729681948,0.013180781350089925
2,55,1.0001661709182261,0.0011781850371594144,0.012190500261097989
2,56,1.000165737492153,0.0011390981796207912,0.011211204179917882
2,57,1.0001658280373593,0.0010972649786578715,0.01025124214317368
2,58,1.0001659613511058,0.0010558602610524226,0.00931463678094086
2,59,1.0001656644266799,0.001018097717440696,0.008403692115333688
2,60,1.0001645321099084,0.0009868803772368749,0.007515685544692561
2,61,1.0001622254192055,0.0009641701163711954,0.006647182312471326
2,62,1.0001585702721918,0.000950400005759136,0.005791144588845294
2,63,1.0001535485546473,0.0009440374720161577,0.004943687010729952
2,64,1.0001474230366862,0.000941710282694314,0.004100864002807965
2,65,1.0001406913453237,0.000938730151404884,0.003266232749347718
2,66,1.0001341655503198,0.0009300936271316453,0.0024447353176554345
2,67,1.000128772290114,0.0009114287005779075,0.0016494647311759518
2,68,1.0001255705983718,0.0008797340314192048,0.0008918625078142106
2,69,1.0001255009842485,0.0008336482422317107,0.00018848801091045725
2,70,1.000129285593195,0.0007737022286137105,-0.00045017479291530656
2,71,1.000137215972446,0.0007017735547545871,-0.0010107780312190535
2,72,1.0001495261292674,0.0006202714667922876,-0.0014896296710262265
2,73,1.0001660480347274,0.0005326663215949653,-0.001880946993749313
2,74,1.0001861846546056,0.0004428979914526591,-0.002187888893377145
2,75,1.0002096967342036,0.0003491591015462799,-0.0024080728139598538
2,76,1.0002371699803145,0.00024150889882338514,-0.0025411773166267395
2,77,1.0002681000411526,0.00011356258817383571,-0.0025696203529353735
2,78,1.0003001640624642,-2.467413382949624e-5,-0.002478324525983107
2,79,1.0003309614987836,-0.00015180597209741344,-0.0022583072165143583
2,80,1.0003596520048987,-0.00025023953339216667,-0.0019319741630756282
2,81,1.000386226384889,-0.0003136144014631603,-0.0015337976791733794
2,82,1.0004104027984364,-0.0003434414340128805,-0.001111431152548554
2,83,1.0004315945514923,-0.00034400931603937847,-0.0007016813432597443
2,84,1.000449298460993,-0.00032081208189141603,-0.00034088675081080745
2,85,1.0004633641656249,-0.0002795359494497927,-5.042744611531034e-5
2,86,1.0004740823732066,-0.0002247531965436489,0.00014765746448288348
2,87,1.0004815250791932,-0.00015900361034882645,0.00024211344982587017
2,88,1.0004865376046428,-8.905802563137976e-5,0.00021755635366832592
2,89,1.0004884212740992,-2.6791563575272402e-5,7.98629444414632e-5
2,90,1.0004878290120363,2.2853877937186742e-5,-0.0001674077666559328
2,91,1.0004878815425764,2.5839878134141687e-5,-0.00047764971081430945
2,92,1.0004862836330095,-5.631337556409244e-5,-0.0007801873905508477
2,93,1.0005002793682145,-0.000319771739718354,-0.0009501969264438185
2,94,1.000497298956142,-0.0007156880255776441,-0.0007728389812251108
2,95,1.0005308834812277,-0.0009536647788713582,-0.0003891404104794347
2,96,1.0005805189080006,-0.001989327899912414,0.0009781608347029654
2,97,1.000479808952625,-0.0033708643920378803,0.0030111643773044344
2,98,1.001199198712247,-0.003947930292099353,0.004413735681320887
2,99,1.0001062198418935,-0.010443856777147327,0.01622304771254196
2,100,0.9994048965548075,-0.012238928399499565,0.021815844370113822
2,101,1.0035353705174945,0.0514847235105226,0.005641719718355861
3,1,1.0005379354930048,5.9260452625379084e-5,-1.1309029158390539e-5
3,2,1.0005411668074928,0.00018983290990076215,-8.660017202691953e-5
3,3,1.0005404770510107,0.00028531942911077553,-0.0002516561772453022
3,4,1.0005370198023193,0.0003280594460336921,-0.00047561984398430837
3,5,1.0005336696444087,0.0003778235961515175,-0.0007325723768682736
3,6,1.0005304781458084,0.00045749344746241814,-0.0010322601523158408
3,7,1.0005262985304846,0.0005567636418797687,-0.0013938992076702112
3,8,1.000520716997523,0.0006707536521747815,-0.00182988531281408
3,9,1.0005138247926053,0.0008034371532352482,-0.002348252120679924
3,10,1.0005055958941382,0.0009555589898746429,-0.0029578424749074433
3,11,1.00049595741104,0.001122428411708703,-0.003664381534970122
3,12,1.0004850804806245,0.00129550682115419,-0.004468043269097474
3,13,1.0004733975590785,0.001458869611729355,-0.005357747545110471
3,14,1.000461607644425,0.0015851743090443098,-0.006306263565250184
3,15,1.0004508281887023,0.001637562491005213,-0.007263174206456095
3,16,1.0004428015780138,0.0015776543632748535,-0.008156267330053769
3,17,1.0004398677560928,0.001376150741906985,-0.008898411277243
3,18,1.0004446838060974,0.001021892158101735,-0.009403231729859607
3,19,1.0004596742361593,0.0005255096571486404,-0.009598822405805707
3,20,1.0004865016880369,-8.373267177631915e-5,-0.009439253099269322
3,21,1.0005256496288437,-0.0007658433538293383,-0.008905903250816687
3,22,1.0005763080036771,-0.001478643759541977,-0.008005082491882561
3,23,1.0006364092423379,-0.002183759422353018,-0.006759911792466507
3,24,1.0007028588859852,-0.002849016032182579,-0.005205166352526817
3,25,1.0007717626323576,-0.003448172654417565,-0.0033814277429557896
3,26,1.0008387180973923,-0.003959751344468563,-0.001334268669330685
3,27,1.000899179548179,-0.004366650854461562,0.0008884231407150724
3,28,1.0009490095561884,-0.004656718077321575,0.0032358365108187347
3,29,1.0009849475225576,-0.0048232851330186595,0.005656302682270199
3,30,1.0010048081652527,-0.004865180125735395,0.008095993291247374
3,31,1.0010075686851418,-0.004786918400857742,0.010502015796978936
3,32,1.0009934321033038,-0.004599112400522652,0.012823884666198231
3,33,1.0009638572712931,-0.004318146017880295,0.01501897603821424
3,34,1.0009212702767722,-0.003964417221455423,0.01705328644085815
3,35,1.0008687179487816,-0.003559719511896911,0.018903931205363874
3,36,1.000809376569959,-0.00312471687406027,0.02055648852860821
3,37,1.0007462943795133,-0.0026772037028395066,0.022005174189141594
3,38,1.000682078522794,-0.002231261172528779,0.023248961592596915
3,39,1.0006188828304388,-0.0017971898320243971,0.02429154166913088
3,40,1.0005582870213299,-0.001381935782038234,0.025137822720449784
3,41,1.0005014499046245,-0.0009897816482704405,0.02579464260146554
3,42,1.000449068936766,-0.0006230940502898412,0.02626810444144155
3,43,1.0004015779784285,-0.00028301217778372304,0.026565065428979136
3,44,1.0003591052646716,2.999153177417914e-5,0.026691136929270144
3,45,1.000321658586659,0.0003157066998067507,0.02665268364349418
3,46,1.0002890593877471,0.0005739256244441017,0.02645521278540334
3,47,1.0002611020562844,0.0008043323078578716,0.026105623951540178
3,48,1.0002374678944574,0.001006494825419204,0.025610721349445725
3,49,1.0002178605980687,0.0011799670079856944,0.024979494501085626
3,50,1.000201909147385,0.0013244327700132653,0.024221490525962515
3,51,1.0001892838064388,0.001439908902647982,0.02334894658251776
3,52,1.000179595502889,0.001526924255239546,0.022374771221421688
3,53,1.000172496038808,0.0015867066721998774,0.02131443933062999
3,54,1.0001675796531944,0.001621287032386443,0.0201834059863133
3,55,1.0001644717223526,0.001633578628469538,0.018998844147339745
3,56,1.0001627377144218,0.00162736602384801,0.017776450081736
3,57,1.00016196100336,0.0016073073614952032,0.01653232190980761
3,58,1.0001616587333784,0.0015788282392070862,0.015279231316055781
3,59,1.0001613574623653,0.0015478258696566554,0.014029056628378687
3,60,1.000160548850825,0.0015198531421369201,0.012788699269234809
3,61,1.0001588064997748,0.0014988156290605323,0.0115639859753845
3,62,1.0001558025142847,0.0014854563550385897,0.010356202764124056
3,63,1.0001514357874335,0.00147648248998383,0.009168782686542672
3,64,1.0001458560310381,0.001464932063184724,0.00800414550562707
3,65,1.0001395396947175,0.0014418969247230145,0.006871328426207831
3,66,1.0001332424470397,0.001398842783917461,0.005779694532502827
3,67,1.0001279342292388,0.0013298911466847142,0.004745029029223473
3,68,1.0001246532889272,0.0012331953025510154,0.003779226239017218
3,69,1.0001243594340665,0.0011107750330000992,0.0028964991245421633
3,70,1.0001278149538528,0.0009673785017737965,0.002102410934305038
3,71,1.0001353718632247,0.0008099338589531103,0.0014037911519135557
3,72,1.000147058863535,0.0006468186304815297,0.0007969430573034919
3,73,1.0001628528978526,0.00048548870407269035,0.00027911257362399366
3,74,1.000182523349653,0.00032957172257716246,-0.00015962551005474667
3,75,1.0002051341011065,0.00017496457368391767,-0.0005189472357416822
3,76,1.0002302456998946,6.576470827851665e-6,-0.0008041633222395153
3,77,1.0002586455558795,-0.00019271239112076064,-0.0010106601942910178
3,78,1.000290475987435,-0.00041935730503110875,-0.0011294733898730728
3,79,1.0003233493700074,-0.0006394642410896465,-0.001132841347689366
3,80,1.0003542087302815,-0.0008082265522683146,-0.0010125323860548149
3,81,1.0003814943684317,-0.0008965849792787506,-0.0007827702790913101
3,82,1.0004051853927465,-0.0008994585034029434,-0.000494858288109492
3,83,1.00042535750775,-0.0008275181912329999,-0.00020067621302107908
3,84,1.0004419087929695,-0.0006971745314194102,4.319224964665198e-5
3,85,1.0004546146013595,-0.0005249568391587236,0.00020076180030864472
3,86,1.0004635553868884,-0.00032027578766808887,0.0002334539058464337
3,87,1.0004695618864483,-9.074427309343159e-5,0.00011770561785161245
3,88,1.0004719955523782,0.0001488334545405272,-0.00016964304424946623
3,89,1.00047245736422,0.0003758130258617635,-0.0006345772341718935
3,90,1.0004706925905789,0.0005443324037870822,-0.001243693262346571
3,91,1.000466173555519,0.0006091786271350659,-0.0019355061605768316
3,92,1.0004648436768429,0.00043880792167824066,-0.002584463850312288
3,93,1.0004509550571334,-1.734455543856455e-5,-0.0030542118164453855
3,94,1.0004915676872692,-0.0006348494855711007,-0.0034687628752625935
3,95,1.000483406736011,-0.0018485831961039642,-0.002905453186416307
3,96,1.000354806608972,-0.0028628044868195287,-0.002252821119037114
3,97,1.0007890596508213,-0.004246973529892207,-0.002451671189595558
3,98,1.0004207734297634,-0.011421866075447805,0.003740487116925175
3,99,0.9993206880406212,-0.01654409434627622,0.006156792547360475
3,100,1.0003429738711977,-0.002653945418623513,-0.0005395585249688161
3,101,1.0002291351140613,0.05516908043445871,-0.0019327365391215159
4,1,1.0005387297777744,9.816524683490539e-5,-1.2642867235649135e-5
4,2,1.000542131014529,0.0003193039132055565,-9.346465000377548e-5
4,3,1.000541982552579,0.0005037938040559452,-0.0002729492264001639
4,4,1.0005388431759603,0.0005985174363417593,-0.0005290099874942157
4,5,1.0005351516653722,0.0006881193051257594,-0.0008335173897805254
4,6,1.0005318416466553,0.0008249818266684805,-0.001184934611281958
4,7,1.0005279910435203,0.0010014696807900086,-0.0015997972292246905
4,8,1.0005227542219723,0.0012040364642733478,-0.002092601862637901
4,9,1.000516060656039,0.001433263791894852,-0.0026667925229122
4,10,1.0005080148620131,0.0016888608817631015,-0.003321867637752531
4,11,1.0004985910563284,0.001961659159378272,-0.004052399083804946
4,12,1.000487833427402,0.002233753345923072,-0.004845821918783226
4,13,1.000475944384372,0.002474096499918221,-0.005674476633970788
4,14,1.0004633485462329,0.002634491904266356,-0.006492893669438758
4,15,1.0004508362162894,0.0026559576270302303,-0.007234435932934734
4,16,1.000439911010954,0.0024850517838655634,-0.007820221093406061
4,17,1.0004328486158667,0.002091559991923326,-0.008170811857821123
4,18,1.000432496271224,0.001478799884341847,-0.008224579550040278
4,19,1.000441630242039,0.0006821243558646791,-0.007945499385128328
4,20,1.0004623848975038,-0.00024238824378279366,-0.007327049917475055
4,21,1.0004956866668657,-0.0012326075228292067,-0.006383222509133176
4,22,1.0005411121252057,-0.0022317771786150914,-0.005142318368254102
4,23,1.0005968351768748,-0.003193730940568509,-0.0036361804021192734
4,24,1.0006598585756759,-0.004082512900347355,-0.0018991158174451188
4,25,1.000726163252941,-0.004869441455386849,3.649685533983524e-5
4,26,1.0007911338199031,-0.0055306347262940045,0.0021361581203704775
4,27,1.000850120757791,-0.006046249546503488,0.004365663801536378
4,28,1.0008989780746291,-0.0064004288635963425,0.006684868831267844
4,29,1.000934291802186,-0.006581904129700784,0.009049185104472664
4,30,1.0009535005110606,-0.0065861222481156945,0.011405671621662207
4,31,1.0009553211158733,-0.006418471708403035,0.013702093529067445
4,32,1.0009399480552117,-0.006095795770947993,0.0158891373745361
4,33,1.0009091411272804,-0.005644649501836686,0.01793044001205432
4,34,1.000865641875588,-0.005096980174954014,0.019799918273496087
4,35,1.000812850940641,-0.004485416558009912,0.021486137623452427
4,36,1.0007540860133284,-0.003839489282969554,0.022984951689599457
4,37,1.00069250675091,-0.0031834787890323546,0.024301794661987484
4,38,1.0006306040971882,-0.0025356290929841527,0.02544364049522198
4,39,1.0005704701159943,-0.0019084912084754828,0.026422006419012156
4,40,1.0005134620057115,-0.0013098115458383339,0.027245911095984794
4,41,1.0004606498138324,-0.0007437249010040273,0.027926086617760592
4,42,1.0004125129655288,-0.0002118813879422706,0.028468963378701157
4,43,1.000369428700162,0.0002855192981270565,0.02888168127490665
4,44,1.0003313381173493,0.0007489422398765899,0.02916677097230518
4,45,1.0002982205972748,0.001178906298056196,0.029327544611502457
4,46,1.0002697289521627,0.0015756113447917843,0.02936325071230017
4,47,1.000245638175313,0.0019387218898373627,0.029274596280316728
4,48,1.0002254697808133,0.002267333602250198,0.029059268581336267
4,49,1.000208914141805,0.002560063648641251,0.028717446504353955
4,50,1.0001954625082754,0.002815263321886736,0.02824759458708041
4,51,1.000184799707337,0.0030313165357364986,0.02765182419671414
4,52,1.000176453337398,0.0032069857263766137,0.02693178137587399
4,53,1.0001701490205999,0.003341788028130796,0.026093673660001655
4,54,1.0001654793658572,0.003436324771124541,0.025143989368766804
4,55,1.0001622152524932,0.003492577364271904,0.02409403139020942
4,56,1.000159998484715,0.0035140764126544355,0.022955235160712455
4,57,1.00015860861686,0.003506023550110288,0.0217432581620507
4,58,1.0001576812808062,0.003475229995101264,0.020472879968197768
4,59,1.000156931040888,0.003429814185724499,0.01916196831224719
4,60,1.000155915766987,0.0033781932162707893,0.017825952320182956
4,61,1.0001542662077152,0.003327268750848085,0.016482021521110897
4,62,1.0001515614815715,0.0032799903085442388,0.015143483207132935
4,63,1.0001476018982935,0.0032336039496618195,0.013825414385507344
4,64,1.0001423705977075,0.003179739736129197,0.012539515889393086
4,65,1.0001362418181463,0.0031068122073290736,0.011301135632257623
4,66,1.0001298835115624,0.003003701985297315,0.010122406395508253
4,67,1.000124288499036,0.002863414191280879,0.009018379329604819
4,68,1.0001205534534443,0.002685068243509908,0.007997093403309272
4,69,1.0001197081962412,0.0024733675311761037,0.007066696152203886
4,70,1.000122539848327,0.0022365094152147114,0.006225047212456691
4,71,1.0001295841094757,0.001984811437374143,0.005470135561308755
4,72,1.0001410148983858,0.001730127155973595,0.004790299594100245
4,73,1.0001565165464963,0.001482354161568178,0.004178118671940861
4,74,1.0001756817165648,0.0012433275128748938,0.0036185389152166053
4,75,1.0001979535068344,0.0010052136188358864,0.0031062713725420604
4,76,1.0002223513186934,0.0007545116817228767,0.0026302545667992614
4,77,1.0002484725374219,0.00047443627976738613,0.0021838447366077894
4,78,1.0002777576273278,0.00015314089838043752,0.0017517317601090086
4,79,1.0003110434511204,-0.00019525044072622245,0.001352302538937856
4,80,1.0003460760722822,-0.0005203238019194399,0.0010239727117415354
4,81,1.0003789786960597,-0.0007591658830698072,0.000815884996238916
4,82,1.0004075087709514,-0.000871300540641406,0.0007286802870240178
4,83,1.0004313982332984,-0.000850906027728622,0.0007337624406128678
4,84,1.0004509442942235,-0.0007160127588058722,0.000769439599644086
4,85,1.000466249260634,-0.0004899145138406197,0.0007867066724943665
4,86,1.0004778378627568,-0.0001894040764904487,0.000731104615286575
4,87,1.0004857608680324,0.00017174606704249798,0.0005713811483079724
4,88,1.0004918761408432,0.0005656516957436474,0.0002673096981291135
4,89,1.000495080688749,0.0009298825761545143,-0.000162093031993608
4,90,1.0004971430115541,0.00118809385520062,-0.0006967824749926233
4,91,1.0004963152355808,0.0011998539630648463,-0.0011908565688507492
4,92,1.000483950160021,0.0009123998265308073,-0.001565310835604151
4,93,1.0005133960334205,0.0003407700364296391,-0.001898647682064114
4,94,1.0004799038017214,-0.0009830000590250346,-0.0015030117473439763
4,95,1.000437633300981,-0.0021632309044478013,-0.0013496565502235454
4,96,1.0007422970428093,-0.00312436189103018,-0.0014672016471375714
4,97,1.000340487171761,-0.008417134559790271,0.002924333703751069
4,98,0.9998546534238273,-0.013378256055965383,0.003493243842256887
4,99,1.0006570113037272,-0.010022066627488033,-0.0019346183330563112
4,100,1.0010122557630843,-0.0013451078162449238,-0.0025427744957056014
4,101,0.999549380371563,0.05204426582401068,-0.0005553615268696316
5,1,1.0005404430368958,0.0001324548987839364,-1.1753665621136773e-5
5,2,1.000543574644595,0.0004448123000984577,-8.861134501167565e-5
5,3,1.0005436092345046,0.0007222258941322346,-0.000261412415014015
5,4,1.000541072795197,0.0008794662504533637,-0.0005123526816139301
5,5,1.0005376323663158,0.001014419211998862,-0.0008186071120133561
5,6,1.0005340400563134,0.0012011117926171517,-0.0011754046395050463
5,7,1.0005300941190645,0.0014407065394148257,-0.0015887420195373556
5,8,1.0005249556610574,0.0017114218408362757,-0.002068474857984383
5,9,1.0005180804350116,0.0020027489913323794,-0.00261388156562353
5,10,1.0005094361140519,0.0023083730730084806,-0.0032160883086195515
5,11,1.000498967805958,0.002612856731527918,-0.0038585204484825773
5,12,1.000486498739274,0.002886570819969788,-0.004518488810414259
5,13,1.0004718524495604,0.003081456489899997,-0.005157788382699709
5,14,1.0004552068353294,0.00313113366740277,-0.005724000132773812
5,15,1.0004373770031132,0.0029643109412402285,-0.006150737672269675
5,16,1.0004203031766505,0.0025284773248354687,-0.0063727163401092165
5,17,1.0004069956618296,0.0018101009304642946,-0.006334998057251124
5,18,1.0004011471222687,0.0008399049175396657,-0.006007482920170437
5,19,1.0004061293283448,-0.0003180788799576174,-0.005382013306172499
5,20,1.0004243137853592,-0.0015857959265703425,-0.00447199167193252
5,21,1.0004564605252728,-0.0028889167132073,-0.0032987181120693394
5,22,1.0005017671528749,-0.004166740194424898,-0.0018899485634300693
5,23,1.0005578865725047,-0.0053737336368512145,-0.0002700513170685076
5,24,1.00062126585054,-0.0064757904619500315,0.0015348613444363726
5,25,1.0006874723251147,-0.007445597005366055,0.0035035660263247784
5,26,1.0007518944641975,-0.00825888790900874,0.005610962912240924
5,27,1.0008102064967084,-0.008891647153654422,0.007830775141942439
5,28,1.0008583403110072,-0.009319425096268869,0.010121204717499445
5,29,1.0008926168786834,-0.009521824704892006,0.012431408271792592
5,30,1.0009101287862185,-0.00949063037716564,0.014698615325157614
5,31,1.000909688758259,-0.009236070988165989,0.016867925531093418
5,32,1.000891786289472,-0.008786559994738494,0.01889142864342856
5,33,1.0008587037797494,-0.008183036132571578,0.020742442493874785
5,34,1.0008134503271948,-0.007471079640142913,0.022404547335534385
5,35,1.0007597089894567,-0.00669420481295963,0.02387954123306213
5,36,1.000700694196214,-0.005889318947156347,0.02517219558770209
5,37,1.000639564632595,-0.005084822324016212,0.02629814123801615