TITLE="CMs_NON_Orthogonal Re = 10000.0"
VARIABLES = X,Y,Rho,U,V
ZONE
I = 101	J = 101
F=POINT
1,1,1.0009781810219822,2.5130200690276554e-6,-3.1380589884950395e-6
1,2,1.000979408236445,6.5791032344542205e-6,-2.018513186852686e-5
1,3,1.000979314038733,6.977723176670594e-6,-4.226954236491288e-5
1,4,1.0009795681431948,7.981671079526274e-6,-6.742055767692312e-5
1,5,1.000979857520375,9.166705410755695e-6,-9.724316207133337e-5
1,6,1.0009801613093128,1.0270431951667407e-5,-0.00013284654795355937
1,7,1.0009805027506715,1.1101447271704624e-5,-0.00017507812025226852
1,8,1.0009808978379977,1.1415912657006608e-5,-0.00022504064150799882
1,9,1.000981340767823,1.0815867344731578e-5,-0.00028381178565099643
1,10,1.0009818165584745,8.714694212078481e-6,-0.0003525470773165514
1,11,1.0009823015227317,4.3337822423774934e-6,-0.0004320192795553951
1,12,1.000982775146872,-3.299855257514927e-6,-0.0005226465443471305
1,13,1.0009832314337161,-1.5339176085780163e-5,-0.0006240102490669881
1,14,1.000983695599472,-3.307974209078451e-5,-0.0007348580042616718
1,15,1.0009842415837389,-5.7903700555817015e-5,-0.0008526871621080105
1,16,1.0009850082997933,-9.119108694457238e-5,-0.0009738304083259702
1,17,1.0009862064040518,-0.0001342263466147286,-0.0010932296115087712
1,18,1.0009881127950593,-0.00018809533695501288,-0.0012046878784083932
1,19,1.000991048258455,-0.00025360567849218795,-0.001300856512662171
1,20,1.0009953428198626,-0.00033121422173024016,-0.0013736005163407967
1,21,1.0010012900235825,-0.0004209804634210674,-0.0014141153119586378
1,22,1.0010090974343673,-0.0005225219069987065,-0.0014133466779137854
1,23,1.0010188344266902,-0.0006349884609121524,-0.0013622380005974934
1,24,1.0010303835091356,-0.0007570429249333252,-0.0012522800341416727
1,25,1.0010433968084411,-0.0008868722656758947,-0.0010759809281084935
1,26,1.0010572660221055,-0.0010222275196876667,-0.0008275988537831718
1,27,1.0010711127264262,-0.0011605125856948195,-0.0005037517502956092
1,28,1.0010838132565323,-0.0012989102987008257,-0.00010409423586742094
1,29,1.001094065226681,-0.0014345442486225772,0.00036831276298098593
1,30,1.0011004946919897,-0.001564653007128298,0.0009067886905463945
1,31,1.0011017886986748,-0.0016867774573769377,0.0015012474978747781
1,32,1.0010968355239445,-0.0017989402722444873,0.0021386675737273078
1,33,1.0010848501032237,-0.0018997788004592089,0.0028039837596623156
1,34,1.0010654643141716,-0.00198857725658698,0.0034810885349179557
1,35,1.0010387656894568,-0.002065205387766872,0.004153915840552724
1,36,1.00100528118759,-0.002129994807236195,0.004807312510845176
1,37,1.000965912657291,-0.0021835987410768875,0.005427757516139781
1,38,1.000921840782668,-0.002226855944372466,0.006003767815625351
1,39,1.0008744152534799,-0.002260679017095238,0.006526126524192152
1,40,1.0008250494009778,-0.002285967097650302,0.006987856741402341
1,41,1.0007751295692549,-0.002303548628024375,0.007384100887639057
1,42,1.0007259472408216,-0.0023141454631550058,0.007711861624123209
1,43,1.0006786522850994,-0.0023183589983013816,0.007969740159426622
1,44,1.0006342282797522,-0.002316668007313097,0.008157632084854788
1,45,1.0005934814888813,-0.0023094388639272865,0.008276470994959465
1,46,1.0005570444273655,-0.0022969392446784485,0.008327987069957365
1,47,1.0005253827025211,-0.002279357610851462,0.008314519438915204
1,48,1.000498810672364,-0.0022568213151607855,0.008238876328570798
1,49,1.0004775018855376,-0.0022294173867726244,0.008104221895349912
1,50,1.0004615071574525,-0.0021972094681189046,0.007914039836841354
1,51,1.0004507609829152,-0.0021602569902003247,0.007672069370783486
1,52,1.0004450991073603,-0.0021186282473078777,0.007382362768043468
1,53,1.0004442583809117,-0.0020724178145546516,0.0070492263573701695
1,54,1.0004478957077068,-0.002021752806631503,0.0066773664956847915
1,55,1.0004555816223666,-0.001966810421057051,0.006271769653524272
1,56,1.0004668254667415,-0.001907811196743824,0.005837949228444601
1,57,1.000481063907135,-0.0018450425395669962,0.005381660347205624
1,58,1.0004976985953389,-0.0017788259419183265,0.004909304352215279
1,59,1.0005160800402124,-0.0017095624020633156,0.004427302734014191
1,60,1.0005355635021327,-0.0016376474036237155,0.003942820728903877
1,61,1.0005554861403168,-0.0015635760726668657,0.0034624906469988836
1,62,1.0005752435360995,-0.0014877559383191462,0.0029938428108440365
1,63,1.0005942539810753,-0.001410746772193567,0.0025428141678161486
1,64,1.0006120529454199,-0.0013328839277951436,0.0021166991862790244
1,65,1.0006282355256066,-0.001254771629964446,0.0017194369663123595
1,66,1.000642556786083,-0.0011766101559294953,0.0013575226909067306
1,67,1.0006548472143135,-0.0010990258802813626,0.0010315280048194381
1,68,1.0006651128879829,-0.001022090342386844,0.0007468337560932926
1,69,1.0006734165804667,-0.0009464378543925421,0.0004998088167406862
1,70,1.0006799462364528,-0.000872115472068186,0.00029479516829249256
1,71,1.0006849209405164,-0.0007996456303017977,0.00012416954892186167
1,72,1.0006886811986373,-0.0007291487829924204,-8.60560918163033e-6
1,73,1.0006914736197088,-0.0006612496854837499,-0.00011384096679772222
1,74,1.000693471410963,-0.000596110063170812,-0.00018784618231846553
1,75,1.0006949228388893,-0.0005339281458964637,-0.00024234566993540865
1,76,1.000696267754158,-0.0004748741068083216,-0.00027380541188998307
1,77,1.0006976568557022,-0.0004197866232608433,-0.0002939802874632804
1,78,1.0006988300556436,-0.00036926384814463736,-0.0002962127856779051
1,79,1.0006995308848132,-0.00032343977375932497,-0.000289825896711619
1,80,1.0006999772711722,-0.0002815652565281357,-0.0002673180225129478
1,81,1.0007005921906982,-0.00024290522091816724,-0.00024091314512530537
1,82,1.0007016991496247,-0.0002065900344185669,-0.0002056666407567333
1,83,1.000703300925117,-0.00017219941989524886,-0.00017646845363463343
1,84,1.0007052946548896,-0.00013920345422036687,-0.00014861133085348528
1,85,1.000707577666299,-0.00010792463613063671,-0.00013790833683211408
1,86,1.0007098965411845,-7.842812691255123e-5,-0.00013851545398616482
1,87,1.0007122861344058,-5.2750610415855715e-5,-0.00016546220990747303
1,88,1.0007141851663008,-3.2453667950496315e-5,-0.0002057254706267119
1,89,1.0007155974500646,-1.951867717860663e-5,-0.00026579683785159523
1,90,1.000716402561501,-1.812049827479698e-5,-0.00031632755998052585
1,91,1.00071652794422,-2.361712837995463e-5,-0.0003494204531028008
1,92,1.0007258577831177,-5.59876468556e-5,-0.0003115138417171875
1,93,1.0007299877638673,-0.00011769538359291014,-0.0001338887143904513
1,94,1.000731803050635,-0.0001989823521460525,0.0002653313926649111
1,95,1.000731967169337,-0.0002873815916524136,0.00093140628472188
1,96,1.0007926267683347,-0.00025766074754540887,0.0017152628002978687
1,97,1.0009794569907988,-0.0010129142065971354,0.0034039499790246173
1,98,1.0002925972417906,-0.0010789081102799667,0.0065863360432032916
1,99,1.0007564892426817,0.0005734210469309366,0.007655200890581005
1,100,1.0019331845712243,-0.007686867204003118,0.016403610066792956
1,101,0.9965184714173925,0.02652559942788343,0.013997311128290802
2,1,1.000976734727443,2.0203939437718118e-5,-6.513989871886787e-6
2,2,1.0009779343505067,4.4101507018136795e-5,-4.104017535318275e-5
2,3,1.0009772634885552,5.244498499993412e-5,-9.607064912508317e-5
2,4,1.0009770522490289,6.157897278012129e-5,-0.00016263564515724984
2,5,1.0009768141510058,7.424306040180712e-5,-0.00024222875796660947
2,6,1.0009764568066193,8.939210686476109e-5,-0.0003383362386133515
2,7,1.0009760256659896,0.00010725015212367529,-0.0004533893101232846
2,8,1.0009755038340513,0.00012842027941780985,-0.0005901627908946928
2,9,1.000974870896059,0.00015331919272664003,-0.0007513940241712046
2,10,1.0009741070836484,0.00018202968177012655,-0.0009395029276904535
2,11,1.0009732105762355,0.00021423403141961544,-0.001155661659996428
2,12,1.0009722115650745,0.0002491994989602667,-0.0013993474436729823
2,13,1.0009711919353037,0.0002857854137827784,-0.0016674866250567352
2,14,1.0009703025102057,0.0003225077770433398,-0.0019542091163179385
2,15,1.0009697777757394,0.000357659656940671,-0.002250388935657627
2,16,1.000969936978108,0.00038947104844143447,-0.0025439201835185245
2,17,1.0009711721315342,0.00041627023669298335,-0.0028198789693246774
2,18,1.0009739167214453,0.0004365971491027468,-0.0030613052804890693
2,19,1.0009786052561103,0.00044924965118440147,-0.003249710160126895
2,20,1.0009856240644197,0.00045327608377847766,-0.003365920072454343
2,21,1.0009952648175078,0.00044796680164924216,-0.0033905266374189215
2,22,1.0010076775308479,0.00043290187831531926,-0.003304618455020661
2,23,1.001022829139043,0.00040809889026431585,-0.003090301561756312
2,24,1.0010404609711858,0.000374253911639313,-0.002731679325873888
2,25,1.0010600523387045,0.0003330185221789689,-0.002215826887593946
2,26,1.0010807910813773,0.0002872079500870975,-0.0015341816922792824
2,27,1.001101571326179,0.00024083767518955264,-0.0006837197236576639
2,28,1.0011210265800554,0.00019892779280987653,0.0003319088667936087
2,29,1.0011376110158832,0.00016708516357263697,0.0015019097894341954
2,30,1.001149717231597,0.00015091902201156812,0.002808341300959834
2,31,1.0011558271846892,0.00015538265973036105,0.004226988749704637
2,32,1.0011546679841206,0.0001841634916342777,0.005728736594160866
2,33,1.0011453546498303,0.0002392571722099117,0.0072815476332161845
2,34,1.0011274821589404,0.00032081429379271037,0.008852466631125955
2,35,1.0011011614967187,0.0004272669613737819,0.010409609000882778
2,36,1.0010669856119474,0.0005556666526855781,0.011923653447352772
2,37,1.0010259512777535,0.0007021335348613069,0.013368957874922805
2,38,1.000979342258862,0.0008623182087712865,0.014724072036787975
2,39,1.000928611934692,0.0010318053962656028,0.015971908934335418
2,40,1.0008752654159563,0.001206419391368462,0.017099503769308792
2,41,1.0008207718038733,0.0013824236666860788,0.01809762153317278
2,42,1.0007664903147677,0.0015566224040643225,0.01896019690760248
2,43,1.0007136329539754,0.001726386532458701,0.019683766818252263
2,44,1.0006632352879699,0.0018896225968380203,0.02026692097125349
2,45,1.0006161580449078,0.002044709613694889,0.02070978186884281
2,46,1.0005730841527043,0.0021904138226404584,0.021013634579282837
2,47,1.000534540550391,0.0023258020706647497,0.021180523094305653
2,48,1.0005009033096193,0.0024501506778898093,0.021213123638558946
2,49,1.0004724263328395,0.0025628699844955118,0.021114433453108403
2,50,1.0004492428640663,0.0026634277983979167,0.02088791531595312
2,51,1.0004313953995372,0.0027512995153156326,0.02053720561858104
2,52,1.000418827444815,0.0028259120747341606,0.020066566308960948
2,53,1.000411414891277,0.0028866271957293716,0.019480501634665047
2,54,1.0004089446577906,0.0029327078143284733,0.018784584922013733
2,55,1.000411151929069,0.0029633433573164436,0.017984820227913232
2,56,1.000417682885338,0.0029776410374109928,0.01708895193553323
2,57,1.0004281456612678,0.0029747049008563473,0.01610532048100195
2,58,1.0004420536596452,0.0029536522976377107,0.015044809976591562
2,59,1.0004589016475867,0.002913754999747811,0.01391882099481604
2,60,1.0004780846816848,0.002854471053160007,0.0127420762125568
2,61,1.0004990139400665,0.0027756394347785824,0.01152918428448515
2,62,1.0005210039599741,0.002677496808982637,0.010298634549833208
2,63,1.0005434434114953,0.0025608885298276526,0.009067298418891017
2,64,1.0005656397279556,0.0024272223051714573,0.007856138038379779
2,65,1.000587054974019,0.002278620028818619,0.006681946151830429
2,66,1.000607093604038,0.0021177650303896554,0.005565571324181599
2,67,1.0006254009768218,0.0019479498958428923,0.004520287399170108
2,68,1.0006415806445483,0.0017727871419573721,0.0035635405694556237
2,69,1.0006555434803988,0.0015960841829799372,0.002701631701069264
2,70,1.0006671469981316,0.0014215634941545667,0.0019458644236234218
2,71,1.0006765582172958,0.001252834976640721,0.001293609210049689
2,72,1.000683859407115,0.0010928579641695968,0.000748982293584174
2,73,1.0006894591749085,0.0009436112535318402,0.00030081374936603936
2,74,1.0006935253403066,0.0008065130954265533,-5.216644075761852e-5
2,75,1.0006963706323857,0.0006832958156313938,-0.0003265645698134967
2,76,1.0006982514735878,0.0005747088537873738,-0.0005273182844656877
2,77,1.0006998624329648,0.00047862680034156435,-0.0006746297524749252
2,78,1.000701348220081,0.0003912778736221752,-0.0007708242469586943
2,79,1.0007025334211852,0.00031127651413773237,-0.0008295478301134665
2,80,1.0007029383129513,0.00024126099645255966,-0.0008477421528994923
2,81,1.000702792757024,0.00018545340149415536,-0.0008438027188375812
2,82,1.0007023640038093,0.00014702338072040703,-0.0008259866286235003
2,83,1.0007021118671153,0.00012726630540826604,-0.0008256492815665528
2,84,1.0007017771663527,0.0001260061716018065,-0.0008577113748040908
2,85,1.0007012973300202,0.00014303022702965508,-0.0009558304646947863
2,86,1.000700279812862,0.0001755482855792926,-0.0011308719384969417
2,87,1.000698335489205,0.00021732028645938953,-0.001406210816135915
2,88,1.0006958729888522,0.00025556403684170195,-0.0017710795423737642
2,89,1.0006923559285572,0.00027260454257054423,-0.0022136970203252395
2,90,1.0006895813828045,0.0002526870644921723,-0.0026853908752590026
2,91,1.0006906173946013,0.00016188019949799214,-0.0031197569886244844
2,92,1.000696400507492,-2.8947624111544216e-5,-0.0034147492909831333
2,93,1.0007233848226105,-0.0004055343824300752,-0.003451482501934199
2,94,1.000734928969076,-0.0008862731494175358,-0.0030473773049943067
2,95,1.000794705557296,-0.0012309739415147954,-0.0023545627703546105
2,96,1.0008606568711995,-0.0023533078470488445,-0.0005742729689801292
2,97,1.000761909928364,-0.0038217982793186103,0.001894116766759197
2,98,1.001518774308411,-0.004580403266767292,0.003906719677062917
2,99,1.0004205715137815,-0.010824450322327572,0.016151283395782572
2,100,0.9996309843640511,-0.01222234214813751,0.021792395839154682
2,101,1.0037808010701053,0.051527034253238714,0.0056264193031946835
3,1,1.0009767874329494,3.785093585064195e-5,-6.342167754609422e-6
3,2,1.0009786394366658,9.509422303634587e-5,-4.476311493274763e-5
3,3,1.0009780709231975,0.00012467518721403118,-0.0001160585121572813
3,4,1.000977532174284,0.00014901245716208677,-0.00021178660455634433
3,5,1.0009772088620654,0.00017869437341159268,-0.0003275287712293558
3,6,1.0009768503495016,0.00021385812003212157,-0.00046605282645226746
3,7,1.0009763716462272,0.0002535587946004853,-0.000631241488746322
3,8,1.000975794306125,0.0002977549509076348,-0.0008260942837465337
3,9,1.0009750955552723,0.0003455953983670347,-0.001052848836503781
3,10,1.0009742642330621,0.00039473790764147764,-0.0013124505540400278
3,11,1.000973316027867,0.0004413002880238084,-0.0016031581657535358
3,12,1.0009723065358302,0.0004799732404955024,-0.0019199041148466305
3,13,1.000971347192505,0.0005043208668009578,-0.0022534207054106395
3,14,1.000970616219609,0.0005072562603698057,-0.00259040935749944
3,15,1.0009703612785374,0.00048167579792953076,-0.0029137266939853806
3,16,1.0009708890455866,0.000421136197249636,-0.003203589805360814
3,17,1.000972541084922,0.0003204106173233867,-0.003438591773674082
3,18,1.0009756614526886,0.00017579360595775285,-0.0035972069592401994
3,19,1.0009805613854295,-1.4865359659904133e-5,-0.0036585709330148658
3,20,1.0009874900961755,-0.0002522874650926645,-0.0036032929184293787
3,21,1.000996611794683,-0.0005358677580121509,-0.003413493783274519
3,22,1.0010079884720116,-0.0008635884631498538,-0.0030731279357078755
3,23,1.0010215581040036,-0.0012316809291922168,-0.0025680947462096704
3,24,1.0010371020613673,-0.0016341196557493613,-0.0018871303542596937
3,25,1.0010541984400971,-0.0020621683393923047,-0.001022780686379967
3,26,1.001072174188457,-0.0025042391123411764,2.7026740720214527e-5
3,27,1.0010900761393489,-0.002946251891437243,0.001257836542984654
3,28,1.0011066792629815,-0.003372521844565357,0.002657641587379177
3,29,1.0011205464686226,-0.003767069737571078,0.004206929317239799
3,30,1.0011301424676513,-0.004115148057836007,0.005879319755011772
3,31,1.0011339964898651,-0.004404708489623839,0.007643376550907437
3,32,1.0011308776575578,-0.004627509778944672,0.009464695187386088
3,33,1.0011199517641665,-0.004779650911544151,0.011308482238649104
3,34,1.0011008753896573,-0.004861465932057328,0.013141595105537649
3,35,1.0010738247227122,-0.004876889237618062,0.014934374696235864
3,36,1.0010394471162787,-0.004832493579412895,0.016661515698858872
3,37,1.0009987724019385,-0.004736431991256167,0.01830263444537661
3,38,1.0009530871437804,-0.004597461369165379,0.01984201186071039
3,39,1.0009038187614387,-0.004424163531056455,0.021268318241711028
3,40,1.0008524189224475,-0.004224398107336041,0.02257380998230129
3,41,1.0008002850372444,-0.004004982991309891,0.0237537835870572
3,42,1.0007486902868707,-0.0037715567573288287,0.024805698617884186
3,43,1.0006987553993376,-0.0035285830260096624,0.0257286992693354
3,44,1.0006514211615563,-0.0032794418128692638,0.026522882671202175
3,45,1.0006074555222935,-0.0030265804519307303,0.027189000741379556
3,46,1.0005674501576722,-0.0027716833616705603,0.027727924332354624
3,47,1.0005318437769122,-0.002515856398836652,0.028140517043340627
3,48,1.0005009272142553,-0.002259796527514019,0.028427280431119497
3,49,1.0004748699187225,-0.0020039624654103637,0.02858835152556937
3,50,1.0004537256867052,-0.0017487178968148501,0.028623316300128914
3,51,1.000437456154636,-0.001494478849985469,0.028531281243365368
3,52,1.0004259355958696,-0.0012418265647847616,0.02831087891276344
3,53,1.0004189695157701,-0.0009916328654498178,0.027960368848868128
3,54,1.000416300633415,-0.0007451386326178819,0.027477912309152336
3,55,1.0004176221651082,-0.0005040511407485732,0.026861645271524594
3,56,1.000422588483513,-0.0002705700383799932,0.026110357863791202
3,57,1.0004308217903217,-4.743368993846384e-5,0.025223427160384282
3,58,1.000441930349098,0.00016214374044356606,0.024202085592482984
3,59,1.0004555046877706,0.00035451484232809817,0.023048974061906508
3,60,1.000471144396556,0.0005257946048244153,0.02177020300502955
3,61,1.0004884375349266,0.0006720230744759663,0.020374068368403057
3,62,1.0005069958065722,0.0007895107586504868,0.018874090902114643
3,63,1.000526412606187,0.0008751042233967018,0.017286160639301273
3,64,1.0005463076574934,0.0009266235432351104,0.015632725214900625
3,65,1.0005662678816452,0.0009431148700047704,0.013937427287452885
3,66,1.0005859083423823,0.0009252238479783429,0.012230690874456383
3,67,1.0006048113522679,0.0008752625607961435,0.010541009641161912
3,68,1.0006226007779369,0.0007972932109974006,0.008902464245140062
3,69,1.000638906983333,0.0006968131020094003,0.007342321917637135
3,70,1.0006534469949167,0.0005805018189300562,0.00589129960195353
3,71,1.0006660030369527,0.0004557290296746943,0.004568049068161184
3,72,1.0006764483064046,0.00032988474616471423,0.0033931151273933957
3,73,1.0006848010623948,0.0002093212328039933,0.0023710400892469775
3,74,1.0006912247213868,9.915016137555104e-5,0.0015083600053272003
3,75,1.0006959230622339,4.292816667855237e-6,0.0007952449547542718
3,76,1.0006990142891916,-7.10409605633567e-5,0.0002266412741207388
3,77,1.0007009115251193,-0.00012740073885699374,-0.00021917118812124243
3,78,1.0007022463078186,-0.00017162451920910938,-0.0005557993863143601
3,79,1.000703348168314,-0.00020996791965325918,-0.0008053011425221896
3,80,1.0007037987891347,-0.00023920665725731796,-0.0009729588695485884
3,81,1.0007031457464473,-0.0002464789885135766,-0.0010780887881514836
3,82,1.000701471109243,-0.00021674293486410892,-0.0011397948533984903
3,83,1.0006993212150979,-0.00014007609504565542,-0.0012039762988482316
3,84,1.0006971208919035,-1.405366822710049e-5,-0.0013131706501489737
3,85,1.0006949330141823,0.00015734950140080438,-0.0015207136514111886
3,86,1.0006924564072128,0.0003621141612546643,-0.001857849563940113
3,87,1.0006895754882712,0.0005735045777114047,-0.002346675808268854
3,88,1.000685183811557,0.0007557392812065559,-0.002966025079997562
3,89,1.000681180005788,0.0008648822158713351,-0.003680871573282794
3,90,1.0006773006135636,0.0008471363872498294,-0.004392557526110054
3,91,1.0006756369666892,0.0006685530805248046,-0.005016452201659632
3,92,1.0006807349185272,0.00023870737251097647,-0.005407484554337988
3,93,1.0006756158383345,-0.00041887459554656076,-0.005516896300883906
3,94,1.0007334322496346,-0.0012092626077011047,-0.005480479062046075
3,95,1.0007413996000774,-0.0025549581599920877,-0.004463431242511303
3,96,1.0006115151839712,-0.0036871813139985957,-0.003389438150619663
3,97,1.0010657306338708,-0.005339843216245762,-0.0029663359466340065
3,98,1.0006910443377903,-0.012416888435525915,0.003569577905756035
3,99,0.9995262860469076,-0.01696865644268545,0.005932731061390894
3,100,1.0005911191305987,-0.0027409987215166716,-0.0006281340642683589
3,101,1.0005106872722602,0.05518659327649258,-0.0019258999236350764
4,1,1.0009764117051538,5.9946549582712576e-5,-7.5861894312178024e-6
4,2,1.0009784792971108,0.00015645518697836292,-5.174959492844492e-5
4,3,1.000978185189818,0.00021955622018423912,-0.00013501582441951296
4,4,1.000977681095163,0.000270246987994548,-0.0002513853800947249
4,5,1.0009771776658836,0.00032374215917917637,-0.0003945539958468363
4,6,1.0009768413932392,0.0003862920673932601,-0.0005621058108788139
4,7,1.0009764751069299,0.0004580026227718522,-0.00075633406246553
4,8,1.0009760041353726,0.0005377688637701603,-0.000979442890075733
4,9,1.0009754605665,0.0006238349456645609,-0.0012306649393333821
4,10,1.0009748541924355,0.0007122782657671717,-0.0015065185879270429
4,11,1.0009742181434167,0.0007968168328368517,-0.0017995638300741862
4,12,1.0009736239556588,0.0008693727489499587,-0.0020981028204852753
4,13,1.0009731859077453,0.0009209331759925927,-0.0023858974458212156
4,14,1.0009730661927383,0.000942644747841448,-0.002643371753565521
4,15,1.0009734673735535,0.000926925232334222,-0.00284877856924438
4,16,1.000974616892228,0.0008683173455949556,-0.0029803439586770183
4,17,1.0009767424187728,0.000763817320946465,-0.003017558903944187
4,18,1.0009800490325327,0.000612593662437233,-0.002942495084328176
4,19,1.00098470239226,0.000415276857527924,-0.0027396448750829023
4,20,1.0009908264538305,0.0001732113411425562,-0.002395673622269139
4,21,1.0009985087771822,-0.00011190225695252501,-0.0018983066687842688
4,22,1.0010078037518397,-0.00043769632395466144,-0.001236146852117781
4,23,1.0010187125398784,-0.0008001795133098179,-0.0003987372733295495
4,24,1.0010311302205495,-0.001192466412611926,0.0006218176600675418
4,25,1.0010447659100283,-0.0016037264958759542,0.001829075579367857
4,26,1.0010590591578852,-0.0020188342489842444,0.003219752613036667
4,27,1.0010731247685858,-0.00241898693111659,0.004782274871474001
4,28,1.0010857489278093,-0.0027832706879725414,0.006495819947169708
4,29,1.0010954683071507,-0.0030909298486795386,0.008331323675365149
4,30,1.0011007214575776,-0.003323863566138854,0.010253263736584278
4,31,1.001100059581762,-0.003468786678605808,0.012222960320086644
4,32,1.0010923424318916,-0.0035185597348715426,0.014201529101041091
4,33,1.0010768983286247,-0.003472482721950983,0.016153072399170097
4,34,1.0010535840890427,-0.003335624663355562,0.018046418362704382
4,35,1.0010227846526687,-0.0031175042578663018,0.019856570079612116
4,36,1.0009853202486247,-0.002830480697505605,0.021564607984348498
4,37,1.0009423468921703,-0.0024881966677630764,0.02315766269262825
4,38,1.000895210246079,-0.0021042721509124404,0.024627766051979923
4,39,1.000845348020197,-0.0016913601782922861,0.025971289674095777
4,40,1.0007941690658633,-0.0012605522204927448,0.027187579539141436
4,41,1.0007430060068712,-0.0008210983751708548,0.028278477910872048
4,42,1.0006930408122507,-0.0003803538114300792,0.02924713025205678
4,43,1.00064530787473,5.610767921276771e-5,0.030097792426329432
4,44,1.000600654353423,0.00048429210874966817,0.030834879465389604
4,45,1.0005597748622999,0.0009015302618978386,0.03146304317932753
4,46,1.000523187719663,0.0013062180518132896,0.031986401743572056
4,47,1.0004912829125727,0.0016975583078376348,0.032408806680752564
4,48,1.000464300754433,0.002075330328754495,0.032733168857840854
4,49,1.000442381780731,0.0024396739011504306,0.03296183809454731
4,50,1.000425541694758,0.00279090528131305,0.03309596096274948
4,51,1.0004137181924624,0.0031293396841348743,0.03313592362032951
4,52,1.0004067415943543,0.0034551413613503885,0.03308071214107811
4,53,1.0004043777344918,0.003768165244592855,0.0329284024963004
4,54,1.0004062973154368,0.004067826762941213,0.03267554305850663
4,55,1.0004121165177602,0.004352949963222403,0.0323177122854398
4,56,1.0004213706777536,0.004621660169547137,0.0318490137023116
4,57,1.000433555592742,0.004871250337562965,0.03126275596630336
4,58,1.0004481125522717,0.005098133888763995,0.030551243967241248
4,59,1.0004644725456457,0.005297780800731054,0.029706638969599557
4,60,1.000482058265847,0.005464811202131141,0.02872131766456728
4,61,1.0005003282232205,0.005593092693290391,0.027588874840874862
4,62,1.000518794871662,0.005676079079410901,0.02630533415126948
4,63,1.0005370549127572,0.0057071594278801,0.024869971388525924
4,64,1.0005548116445477,0.005680292916017888,0.02328751621930445
4,65,1.0005718684918607,0.0055905979241509494,0.021567982081513164
4,66,1.0005881415456392,0.005435166525836134,0.01972970491922654
4,67,1.000603596832883,0.005213663862171502,0.01779688998324203
4,68,1.000618257694848,0.004928963365779919,0.01580315455182014
4,69,1.000632104675069,0.004587337915044346,0.013785501556013484
4,70,1.0006451162367536,0.004198478746490757,0.01178826095443289
4,71,1.0006571603944008,0.003774956583464325,0.009853221786525328
4,72,1.0006680978978484,0.0033314521954784446,0.00802476888331575
4,73,1.0006777118780878,0.002883347764779951,0.006337181078801437
4,74,1.000685909165178,0.00244541401744169,0.004821841482587997
4,75,1.0006926217397785,0.0020312173865876617,0.003494503091889242
4,76,1.0006978174940306,0.0016531277723292122,0.0023671394165568423
4,77,1.0007013994713678,0.0013192683887021596,0.0014351860973913877
4,78,1.0007037358862494,0.0010284038808429854,0.0006883469335404625
4,79,1.0007054941472842,0.0007718406894091713,0.00010225889976317752
4,80,1.0007069990952053,0.0005473132039139043,-0.0003395633512349369
4,81,1.000707701419452,0.00037053242991529767,-0.0006543653431250396
4,82,1.0007070737571713,0.00027153708332120147,-0.0008597422231462781
4,83,1.0007053849813707,0.0002779111151919388,-0.0009992551417189514
4,84,1.0007034629761962,0.00039996883346384704,-0.0011319893842557684
4,85,1.0007021348013259,0.0006279466575608884,-0.0013290346559575968
4,86,1.0007016252894845,0.0009268834057060922,-0.0016391281796775104
4,87,1.0007008268673014,0.0012378220725676155,-0.0020800314381442747
4,88,1.0007003403849848,0.0014846547474014493,-0.0026207502246392194
4,89,1.00069837513311,0.0015800629670156769,-0.003176705860240607
4,90,1.000698166851874,0.0014539478271820526,-0.0036544991933732066
4,91,1.0006978657508516,0.0010225781629555628,-0.0038978382251729305
4,92,1.0006903497829136,0.00034899431070316885,-0.0038950383212923733
4,93,1.0007301946680132,-0.0005180380793344562,-0.0037598953564292417
4,94,1.0007070145088068,-0.0019907323398536863,-0.0029231971806909698
4,95,1.0006683123376874,-0.003232780445943771,-0.002440495572909178
4,96,1.000993814022233,-0.0044998233364033574,-0.0020635975091047695
4,97,1.0005934552313374,-0.009798397219498909,0.0025394646568968975
4,98,1.0000647492531256,-0.01430594525935082,0.003043590499705471
4,99,1.0009018500248597,-0.010661204541767774,-0.0020717788061939287
4,100,1.0012892899067436,-0.0015323340924613441,-0.002472840301325053
4,101,0.9997898387140398,0.052078810030762604,-0.000551060326129072
5,1,1.0009761104085901,8.304856770250311e-5,-8.485188986310987e-6
5,2,1.0009783479630694,0.00022434265377567543,-5.8244522183495344e-5
5,3,1.0009780281301213,0.000325005208092168,-0.00015167889857104145
5,4,1.0009776895650069,0.0004064581965546328,-0.00028033848385019183
5,5,1.0009772309700051,0.0004846563275820642,-0.00043798932287123773
5,6,1.0009767938196994,0.0005690574679229645,-0.0006198051412043985
5,7,1.0009764753338368,0.0006626208257168918,-0.0008227876551262777
5,8,1.0009761135420263,0.0007619635240882041,-0.0010458098238138986
5,9,1.0009756531941554,0.0008606471859792815,-0.0012845502904744062
5,10,1.0009751333718215,0.0009497758523564214,-0.0015302020132265484
5,11,1.0009745737168032,0.0010175088385086396,-0.0017694681379976545
5,12,1.000974013514935,0.001050072063168147,-0.001985476803229319
5,13,1.0009735280579526,0.001033562360886034,-0.0021582679757586073
5,14,1.0009732310900057,0.0009558020979926496,-0.0022670879857406316
5,15,1.000973273167543,0.0008078167390447664,-0.002291925992452233
5,16,1.0009738323626445,0.0005844941713372542,-0.0022156342072800713
5,17,1.000975099619178,0.00028422330569098983,-0.002024069344202151
5,18,1.0009772732303759,-9.229381744518361e-5,-0.0017059489632551504
5,19,1.0009805641164935,-0.0005434658063074738,-0.0012507814604234232
5,20,1.0009852158617984,-0.0010676918357760852,-0.0006475149156174973
5,21,1.000991515335336,-0.0016631054549636022,0.00011699976323142684
5,22,1.000999770037938,-0.0023260633334035038,0.0010570478278386032
5,23,1.001010228159394,-0.00304887133572079,0.002186238528149308
5,24,1.0010229481307213,-0.0038176419871637063,0.0035134204420539683
5,25,1.001037654552164,-0.004611216823251449,0.005039251671499244
5,26,1.001053618213939,-0.005401714147895012,0.006752633974521964
5,27,1.0010696184218437,-0.006156798062782084,0.008629978002054997
5,28,1.0010840043995999,-0.006843261259847747,0.010635764180461044
5,29,1.0010948910424466,-0.007431142225297064,0.012726357639983685
5,30,1.0011004089884428,-0.007897360299085087,0.014854061109655751
5,31,1.0010989895686293,-0.008228051750985146,0.01697253874819539
5,32,1.001089549882951,-0.008419198104668148,0.019040179796159636
5,33,1.0010716221923368,-0.008475710099085144,0.02102331612213301
5,34,1.0010453235541164,-0.008409433468516294,0.022896552714851297
5,35,1.0010113114646781,-0.008236719910619823,0.02464326579955338
5,36,1.0009706167448729,-0.007976051884238496,0.0262537786805488
5,37,1.0009245521048338,-0.007646088792830734,0.02772472533336357