TITLE="CMs_NON_Orthogonal Re = 10000.0"
VARIABLES = X,Y,Rho,U,V
ZONE
I = 101	J = 101
F=POINT
1,1,1.0009296112282289,2.00187088359023e-6,-2.5224670069514433e-6
1,2,1.0009305736149083,5.184050469136241e-6,-1.615760777625907e-5
1,3,1.0009305378181135,5.548669776078546e-6,-3.365450853908482e-5
1,4,1.0009308641262515,6.620327169942718e-6,-5.42154782364418e-5
1,5,1.0009312021475936,7.803285948272315e-6,-7.930735998150098e-5
1,6,1.00093154941036,8.928748747092068e-6,-0.00010980891056748489
1,7,1.0009319365462797,9.887430828830314e-6,-0.0001465158809987197
1,8,1.0009323752037314,1.0484133149664744e-5,-0.00019052183243127997
1,9,1.000932853985277,1.0394658704657011e-5,-0.0002428582700209097
1,10,1.0009333544554722,9.1526522175616e-6,-0.0003046440013738385
1,11,1.000933849297219,6.138164946256944e-6,-0.00037666578214644883
1,12,1.0009343091459724,5.635823433955903e-7,-0.0004594312098290179
1,13,1.0009347113337819,-8.521473045628768e-6,-0.0005526672206976706
1,14,1.000935054522705,-2.220224793403264e-5,-0.0006553081970403163
1,15,1.0009353751581305,-4.165391485678801e-5,-0.0007650324750481871
1,16,1.00093576523308,-6.806174413401298e-5,-0.0008783167764224091
1,17,1.000936383959012,-0.00010252900622696733,-0.000990169624390977
1,18,1.0009374589306026,-0.00014596840933472623,-0.0010944030792528218
1,19,1.000939269196776,-0.0001990160421265334,-0.001183669890791072
1,20,1.000942112288837,-0.00026196064218354933,-0.0012499489956111025
1,21,1.00094625640965,-0.000334714888452496,-0.0012847770291233246
1,22,1.0009518879896364,-0.00041680511083203096,-0.0012797716256607418
1,23,1.0009590603088199,-0.0005073896553005244,-0.001226881172257152
1,24,1.0009676530927027,-0.0006052783463907784,-0.001118846804800349
1,25,1.000977344745943,-0.0007089634559312216,-0.0009494649980376663
1,26,1.000987600968607,-0.0008166498395785956,-0.0007140715447008744
1,27,1.0009976785568853,-0.0009263049710033004,-0.0004098946082890128
1,28,1.0010066500324475,-0.001035726597582958,-3.656331210776478e-5
1,29,1.0010134520448475,-0.001142641619345324,0.000403592695575454
1,30,1.0010169602517207,-0.001244824433218692,0.0009052678284614722
1,31,1.0010160842989486,-0.0013402387833711452,0.0014602487218671883
1,32,1.0010098742592684,-0.0014271856371098554,0.0020576520057809878
1,33,1.0009976232208608,-0.0015044286774443087,0.002684563168258682
1,34,1.0009789500672788,-0.0015712489802107961,0.0033267928347109833
1,35,1.0009538465705061,-0.0016274261139856653,0.003969797486772705
1,36,1.0009226816465846,-0.0016731601347846944,0.0045994598412432116
1,37,1.0008861635333068,-0.001708968513462618,0.005202805897830428
1,38,1.0008452702769257,-0.001735575067636218,0.005768451789355501
1,39,1.000801161933697,-0.0017538116601527737,0.006286920032267555
1,40,1.0007550899811275,-0.001764535401117742,0.006750701439053724
1,41,1.0007083144246935,-0.0017685697805505034,0.007154234781188981
1,42,1.0006620372209865,-0.001766663745513773,0.007493721283146008
1,43,1.000617352953807,-0.0017594711902658461,0.00776693541215993
1,44,1.000575218667823,-0.0017475420151980762,0.007972958581234863
1,45,1.0005364370736132,-0.0017313260503515249,0.008111962560240776
1,46,1.0005016537199185,-0.0017111814245251735,0.00818497459147462
1,47,1.000471359116739,-0.0016873896264502706,0.008193708207002883
1,48,1.0004458994936944,-0.0016601701556334955,0.008140410408249752
1,49,1.0004254847460938,-0.0016296984785908312,0.008027759382011628
1,50,1.0004102030908884,-0.0015961208299219401,0.007858805259332378
1,51,1.0004000268791438,-0.0015595713445941723,0.007636920588023149
1,52,1.000394827314507,-0.0015201837506737352,0.007365829526537035
1,53,1.0003943750284574,-0.0014781066673838332,0.007049575735216766
1,54,1.0003983558069285,-0.001433509094015639,0.006692632867170953
1,55,1.000406366002277,-0.0013865947285945821,0.006299832562494126
1,56,1.0004179334938015,-0.0013375956857818515,0.005876559039840581
1,57,1.000432509511644,-0.0012867900137407658,0.00542854490327507
1,58,1.0004495008502765,-0.0012344726312361741,0.004962184252082788
1,59,1.0004682593902754,-0.0011809888089844847,0.004484042979803501
1,60,1.0004881313580265,-0.0011266609216966656,0.004001407536934633
1,61,1.0005084434833413,-0.001071869898737116,0.0035212463582885963
1,62,1.0005285717598937,-0.0010168973019424273,0.003051301754102476
1,63,1.000547918561189,-0.0009621200085613321,0.002598033551158551
1,64,1.0005659977611163,-0.0009076955936685302,0.0021689304568708323
1,65,1.000582393018816,-0.0008539751694846447,0.0017686035062593397
1,66,1.0005968464965536,-0.0008009427440663222,0.0014035497313112414
1,67,1.0006091905305843,-0.0007489186691551373,0.0010751127260435413
1,68,1.0006194330471998,-0.000697745089859392,0.0007883042279662934
1,69,1.0006276531799638,-0.0006477357909338193,0.000540335868076904
1,70,1.0006340537277323,-0.0005987200322406343,0.00033471979564920107
1,71,1.0006388799476553,-0.0005509418230711571,0.00016473495511705208
1,72,1.0006424853618876,-0.0005043559759876125,3.264855597924475e-5
1,73,1.000645126506003,-0.000459360415727567,-7.083530928026348e-5
1,74,1.0006470011128603,-0.0004159712411369869,-0.000143497182146321
1,75,1.0006483964613153,-0.0003743024103584712,-0.00019596793236593082
1,76,1.0006497244246098,-0.0003345667665660731,-0.00022603527812886602
1,77,1.0006510597487053,-0.0002975509442922753,-0.0002437945975437464
1,78,1.0006521270578954,-0.0002637095396067698,-0.00024379072910961504
1,79,1.0006527447104516,-0.00023299172635349655,-0.00023400578061064673
1,80,1.0006531849719427,-0.0002046207517831654,-0.00020879881559457414
1,81,1.000653840384739,-0.00017794807542247438,-0.00017922768154811835
1,82,1.0006549528392987,-0.00015228193923675094,-0.00014206449018775306
1,83,1.0006564657491106,-0.00012732089017693961,-0.00011067686979203435
1,84,1.0006582485313142,-0.00010267075172258403,-8.206823048439181e-5
1,85,1.00066017799434,-7.86790416005814e-5,-7.045920281379893e-5
1,86,1.0006620098913392,-5.5367320537880825e-5,-7.186158914357359e-5
1,87,1.0006638045978753,-3.446713131262112e-5,-9.987949326846646e-5
1,88,1.0006650473395096,-1.7128712282726137e-5,-0.00014458095371777658
1,89,1.0006658514547655,-5.240779025013328e-6,-0.00021261429282498217
1,90,1.0006659307510155,-2.991980957604916e-6,-0.00027917230697215527
1,91,1.0006652637691802,-6.229619937993019e-6,-0.00033714144109219234
1,92,1.0006737908984507,-3.657290938615734e-5,-0.0003350129560694012
1,93,1.00067692762457,-9.716652354729056e-5,-0.00019962377394270412
1,94,1.0006787380508066,-0.00018143190938460846,0.00015753250795447294
1,95,1.0006786622174177,-0.00027586193893072025,0.0007939350337375919
1,96,1.0007415340510704,-0.0002549213916815834,0.001569816573164936
1,97,1.0009329781270417,-0.0010266805030675773,0.0032858909220037412
1,98,1.0002425755375675,-0.0010962533144896714,0.006525300873701815
1,99,1.000711581239819,0.0005568486896717776,0.007658189618036929
1,100,1.0018888149961385,-0.007680392826410637,0.016423175799863538
1,101,0.99646465600849,0.026531295773625202,0.014002530252856188
2,1,1.000928484128271,1.620296610504758e-5,-5.180219170782923e-6
2,2,1.0009294180644401,3.495009665223381e-5,-3.256822557093392e-5
2,3,1.0009289093680167,4.214824073724166e-5,-7.631914709789085e-5
2,4,1.0009288356464938,5.1380712616964305e-5,-0.00013115427698449987
2,5,1.0009286746075425,6.346363031791077e-5,-0.00019908582033003228
2,6,1.0009283914681457,7.7574463403269e-5,-0.0002828222773820407
2,7,1.0009280470412072,9.424531135153885e-5,-0.00038447836604804664
2,8,1.0009276171022918,0.0001140215389436413,-0.0005068046051999502
2,9,1.000927070915454,0.0001371882788733072,-0.0006524829504323393
2,10,1.0009263816682086,0.00016379447935064607,-0.0008238950319531804
2,11,1.000925537981828,0.00019354781242173418,-0.0010223308388445194
2,12,1.000924553909846,0.00022571208613206053,-0.001247606907220014
2,13,1.000923487068015,0.00025906422446120574,-0.0014971422473828847
2,14,1.0009224561519687,0.00029193265320941376,-0.0017656082512078279
2,15,1.0009216574528956,0.00032230769815545297,-0.002044310008958911
2,16,1.0009213698218924,0.0003480278214545241,-0.0023213417079951627
2,17,1.000921947285614,0.00036702490197057877,-0.002581684420238417
2,18,1.0009237899852415,0.0003775684737064318,-0.0028080979115413843
2,19,1.0009273010724558,0.00037844569267667555,-0.0029818748513620688
2,20,1.0009328307819256,0.0003690313042462829,-0.0030840569446225325
2,21,1.0009406236810683,0.0003492533216692659,-0.0030962024228934504
2,22,1.0009507721682136,0.0003194993146958964,-0.003001286465149812
2,23,1.000963187101648,0.00028054102077600243,-0.0027840911129180194
2,24,1.000977578798773,0.00023354019407446027,-0.0024317933232190893
2,25,1.0009934496867088,0.0001801586615472806,-0.0019343314624615726
2,26,1.0010100889280884,0.00012272545742804766,-0.0012851791344850848
2,27,1.0010265783069905,6.43709516408167e-5,-0.00048202258292603955
2,28,1.001041811528425,9.029473399858481e-6,0.00047232461120644026
2,29,1.0010545427327189,-3.874519700240366e-5,0.001569405742666392
2,30,1.0010634611306193,-7.415571906626895e-5,0.0027948068052420457
2,31,1.0010672980145092,-9.267295355263325e-5,0.004128578306792581
2,32,1.0010649466146175,-9.05813013551111e-5,0.005546070170460713
2,33,1.0010555843026874,-6.542778767682974e-5,0.007019425034731153
2,34,1.0010387630450133,-1.627247936975652e-5,0.008519188292509033
2,35,1.0010144611576248,5.629941655872097e-5,0.010016078264638973
2,36,1.000983076557492,0.00015037294427150353,0.011482398142777153
2,37,1.0009453800474475,0.0002630352467462216,0.012893218933009912
2,38,1.0009024275595089,0.0003907595059589164,0.014227021842690373
2,39,1.0008554650329022,0.0005297716198618766,0.015466061393984484
2,40,1.000805824510254,0.0006763525479709226,0.01659629702423652
2,41,1.0007548422923933,0.0008270574480944967,0.01760718038410314
2,42,1.0007037849951683,0.0009788491239010046,0.018491214963548795
2,43,1.0006538078319696,0.001129159143731111,0.019243505677237847
2,44,1.0006059193497714,0.0012758900469883705,0.019861256166488688
2,45,1.0005609759360228,0.0014173795382975637,0.020343310474457667
2,46,1.000519672959674,0.001552336697365841,0.020689771723104874
2,47,1.0004825607180545,0.001679769164544444,0.02090163208988898
2,48,1.0004500461644872,0.0017989011101717256,0.020980596524839343
2,49,1.000422417629154,0.0019091002116558796,0.020928804991507993
2,50,1.0003998455684358,0.0020098016480820883,0.02074889979128763
2,51,1.0003824094759264,0.0021004529074598465,0.020443791531234688
2,52,1.0003700910062316,0.002180453663305655,0.020017006151102586
2,53,1.000362801975867,0.0022491287868986413,0.019472408603992294
2,54,1.0003603662121585,0.002305689462324107,0.01881488572383001
2,55,1.0003625516357673,0.0023492455783201897,0.01804989314175727
2,56,1.0003690382929418,0.002378794140288557,0.01718455746043278
2,57,1.0003794609685028,0.0023932853978990477,0.01622683269688768
2,58,1.0003933608554108,0.002391643615783916,0.015187133641461988
2,59,1.0004102487238622,0.0023728985151479655,0.014076770646953236
2,60,1.0004295370772947,0.0023362336137780766,0.012910264044444356
2,61,1.0004506372368658,0.0022811769482811973,0.011702585945437405
2,62,1.0004728673458358,0.0022076485858924452,0.010472384573295617
2,63,1.0004955976181253,0.002116171807177903,0.009237446729506911
2,64,1.0005181261955218,0.0020078664656317945,0.008019228890789964
2,65,1.0005398815877398,0.0018845979700071408,0.006835933234403325
2,66,1.0005602541127643,0.0017488601206973465,0.005709017928503234
2,67,1.0005788516248424,0.0016038046965648717,0.0046534051837151666
2,68,1.000595271292447,0.0014529706059011119,0.003686887046151571
2,69,1.000609395542892,0.001300129553561529,0.0028172908610573848
2,70,1.0006210943052627,0.0011490058309737124,0.0020556313508315713
2,71,1.000630522258129,0.0010031845851130516,0.0014004118430631248
2,72,1.0006377930105976,0.0008655738748259512,0.0008547167206013065
2,73,1.0006433106524337,0.0007381151513229247,0.0004081337068310428
2,74,1.0006472754426317,0.0006222249890869393,5.777718330521057e-5
2,75,1.0006500244610363,0.0005193821279473288,-0.00021242582384355135
2,76,1.0006518895140109,0.0004296974552767051,-0.0004090482439993751
2,77,1.0006535246626602,0.00035053748065582856,-0.0005507754843328122
2,78,1.0006550039290119,0.00027840250625922673,-0.0006405979835881746
2,79,1.0006561005266048,0.00021269329092215303,-0.0006907432853902156
2,80,1.0006564230092034,0.00015652497950898763,-0.0007005448839040884
2,81,1.0006562409903204,0.00011396928443021471,-0.0006885073662954689
2,82,1.000655816717912,8.784624068894006e-5,-0.0006654911635859299
2,83,1.0006555011029354,7.933157476870312e-5,-0.0006618076591744172
2,84,1.0006549784177527,8.82911365490077e-5,-0.0006938342158985813
2,85,1.0006541074592892,0.00011446610997329009,-0.0007932947846622535
2,86,1.0006524727013884,0.0001553596734255431,-0.0009723442231102252
2,87,1.0006496830516305,0.00020599956914259043,-0.0012537125075134392
2,88,1.0006461485618992,0.00025562394439466627,-0.0016315482074267403
2,89,1.000641263356734,0.0002886755496734708,-0.0020985263867719897
2,90,1.0006369155787482,0.0002896379026773268,-0.002615021774980534
2,91,1.0006358530381543,0.0002220880610690435,-0.003116961551851439
2,92,1.0006395432560946,5.0760083256837326e-5,-0.0035025584467534743
2,93,1.000665067535471,-0.00032055060233082867,-0.0036377942410971476
2,94,1.000676596141767,-0.0008152830104455238,-0.0033224333546441097
2,95,1.0007395726418218,-0.001199728870325747,-0.0026827479411088767
2,96,1.0008099220231108,-0.0023849482628238616,-0.0008901667547189596
2,97,1.0007163882002867,-0.003916378795378817,0.001651245509522878
2,98,1.001478313533131,-0.004722874591310196,0.0037943294785957146
2,99,1.000379133972461,-0.01090765001592067,0.01614751750425188
2,100,0.9995738351196928,-0.012208714624828046,0.021804824680010392
2,101,1.0037266805046574,0.05154420799224349,0.005629017469637134
3,1,1.0009284970229633,3.020485346473506e-5,-5.1029086437718105e-6
3,2,1.0009299645356815,7.547278461933048e-5,-3.6121796616824164e-5
3,3,1.0009295322588543,0.00010099124098174703,-9.427335819221247e-5
3,4,1.0009291995900222,0.00012574129604188552,-0.0001751870223800776
3,5,1.000928964343161,0.0001550118606789853,-0.00027650453110190807
3,6,1.0009286558137567,0.00018851051870219686,-0.0004003317480608376
3,7,1.000928251486225,0.00022635549405145065,-0.0005496729373598589
3,8,1.0009277625309665,0.00026882028334621077,-0.0007273633887396022
3,9,1.0009271472846408,0.0003150568438962986,-0.0009356635930441779
3,10,1.0009263844383032,0.000363008082952114,-0.0011755827250749097
3,11,1.0009254818557887,0.0004093406809773992,-0.001445624873380343
3,12,1.0009244817829082,0.00044930492905039806,-0.0017412536947154008
3,13,1.0009234749206073,0.00047684440644431004,-0.0020538812552395006
3,14,1.000922612841942,0.0004849778751974073,-0.002370816328682061
3,15,1.0009221132639339,0.0004664192049777623,-0.002675183409079524
3,16,1.0009222527497905,0.000414360966785855,-0.0029470091298763167
3,17,1.0009233446434957,0.0003232819919985721,-0.0031642946774495216
3,18,1.0009257048735691,0.000189578209444376,-0.0033048774828987413
3,19,1.000929609982965,1.1847261934739137e-5,-0.003347717076136069
3,20,1.000935258773369,-0.0002092121802317623,-0.003274248165165681
3,21,1.0009427440972205,-0.00047117543398575,-0.003068689706219768
3,22,1.0009520407820334,-0.0007703213430703143,-0.0027182714219049363
3,23,1.0009630032260668,-0.001101890731377355,-0.002212794123970761
3,24,1.0009753633301166,-0.001460046630229844,-0.001544721883628125
3,25,1.0009887168794522,-0.0018375861363191877,-0.0007092916659278161
3,26,1.0010024981306305,-0.002225607004414854,0.0002945309944345965
3,27,1.0010159539627557,-0.002613389980130012,0.0014631791364953604
3,28,1.0010281337856644,-0.00298868670997712,0.002787319462849818
3,29,1.0010379150487734,-0.0033384718645460276,0.004251480201127784
3,30,1.00104407232592,-0.003650062838701412,0.005834070058011753
3,31,1.0010453942016693,-0.003912385309761173,0.007508551332231255
3,32,1.0010408211750017,-0.004117091882551909,0.009244949104719324
3,33,1.0010295830940703,-0.004259284186635013,0.011012038899580849
3,34,1.0010112939409284,-0.004337706429106032,0.012779177886488196
3,35,1.0009859994544943,-0.004354437810277848,0.014518133940934335
3,36,1.0009541574843348,-0.0043142179273259204,0.016204073501157105
3,37,1.000916581366921,-0.004223595704553679,0.017816340628018467
3,38,1.0008743418298676,-0.004090068944188294,0.019338418565233068
3,39,1.0008286719380688,-0.003921341018253985,0.020757872131011726
3,40,1.0007808621904752,-0.003724751389364125,0.02206570984527101
3,41,1.000732186981034,-0.003506899230682571,0.02325597323020811
3,42,1.000683833248102,-0.0032734351690295173,0.024324936940076806
3,43,1.0006368682999804,-0.0030289946779526867,0.02527068672017921
3,44,1.0005922057652004,-0.002777227328710745,0.026092399032232077
3,45,1.0005506069325691,-0.0025208971358937847,0.026790052338438355
3,46,1.00051267081715,-0.0022620153761729643,0.027363866303849026
3,47,1.0004788533365987,-0.0020019986300609137,0.027814166429439933
3,48,1.0004494676455313,-0.0017418233242585915,0.028140986755368864
3,49,1.0004247087721123,-0.001482187293523759,0.028344057817480228
3,50,1.0004046560500033,-0.0012236520847470473,0.02842256658347732
3,51,1.0003892965941428,-0.0009667912184662643,0.028375230504626016
3,52,1.0003785274354084,-0.0007123108208160606,0.02820023642789308
3,53,1.0003721754933308,-0.0004611813091952378,0.0278953697978988
3,54,1.0003700008577114,-0.00021472937188166976,0.027458201957321432
3,55,1.0003717128015348,2.5255788304298657e-5,0.02688623969695621
3,56,1.0003769773022628,0.0002564795797230282,0.026177483642424646
3,57,1.0003854281111384,0.0004760878785790098,0.025330523127360473
3,58,1.000396681090209,0.0006807142437472858,0.024345628049333053
3,59,1.0004103367758375,0.0008665227438031211,0.023224603757117043
3,60,1.0004260019054736,0.0010293974112455825,0.021972578033030276
3,61,1.000443276878318,0.0011651230787560563,0.02059722336165228
3,62,1.0004617831878186,0.0012697431542582,0.019111344445104088
3,63,1.0004811302156869,0.0013398675612543228,0.017530794100559594
3,64,1.0005009488626373,0.0013731406893852365,0.015877899341415577
3,65,1.0005208410187307,0.0013685520555328844,0.014177180314808947
3,66,1.0005404274831218,0.001326839552243143,0.012459693629663692
3,67,1.0005592957185945,0.0012505962978368785,0.010755754965771391
3,68,1.0005770639092326,0.0011443498098755549,0.009100588519077723
3,69,1.000593354640384,0.001014246163837165,0.007523792689132376
3,70,1.0006078709946165,0.0008677326438766613,0.006057084138979325
3,71,1.000620381443334,0.0007129774336666613,0.004721208086609133
3,72,1.000630751821468,0.0005581155818389758,0.003536831665754789
3,73,1.0006389984827133,0.00041018511323750165,0.002509744323704162
3,74,1.000645289326427,0.00027489504990841533,0.0016454466630675929
3,75,1.0006498258583394,0.0001573393134414602,0.0009345233288847479
3,76,1.0006527741540758,6.101682313597248e-5,0.00037001292674730544
3,77,1.0006546053460423,-1.5768279470772213e-5,-6.945682086453201e-5
3,78,1.0006559351512476,-7.988525426622916e-5,-0.00039844012590481935
3,79,1.0006569759459847,-0.00013587502962220157,-0.0006373753494757168
3,80,1.0006572715059,-0.0001785539651963169,-0.0007933201952810789
3,81,1.000656438327265,-0.00019466431328765056,-0.0008868956668000734
3,82,1.0006546550357835,-0.00017036024143779214,-0.000941484247684109
3,83,1.0006524549912885,-9.732059430131314e-5,-0.0010038653105951284
3,84,1.000650166526105,2.5574598367046368e-5,-0.0011178496630624886
3,85,1.000647696520263,0.00019366126658718966,-0.0013340366595335103
3,86,1.0006446598236736,0.0003960273071529214,-0.0016831056258035538
3,87,1.0006408870607382,0.0006099953989520563,-0.002186078019456052
3,88,1.0006353512852364,0.0008057042514127384,-0.0028274125258421668
3,89,1.000629996178736,0.0009434988368960142,-0.003578716954783024
3,90,1.0006244988252595,0.0009680547060110468,-0.004350433774608682
3,91,1.0006212479085133,0.0008345025830825002,-0.0050588394239729
3,92,1.00062446487849,0.00043426475627153,-0.005547895703872652
3,93,1.0006182191295843,-0.00022594820823893994,-0.005750823303093093
3,94,1.0006765290842523,-0.0010650376607287616,-0.005780306715334217
3,95,1.0006862345161605,-0.00250882053909771,-0.004776463310332094
3,96,1.0005607101274603,-0.003769689514766494,-0.0036673072146151766
3,97,1.0010150604921324,-0.0055511332469078455,-0.0031417071166544
3,98,1.0006404068922894,-0.012656861850630181,0.003480586474516654
3,99,0.9994649680618565,-0.017085643019911816,0.005873296447516545
3,100,1.0005344747828624,-0.0027433300066975674,-0.0006450999526818567
3,101,1.0004612179455132,0.055209050686786984,-0.0019241012550427342
4,1,1.0009280762971917,4.844301121869821e-5,-6.3869710575985e-6
4,2,1.0009297568366853,0.00012622484152557026,-4.367621135673957e-5
4,3,1.0009295270718372,0.0001812202096906728,-0.00011474336506314589
4,4,1.000929212221315,0.0002317195509025646,-0.00021668520134024327
4,5,1.0009288459987857,0.0002850336844000878,-0.00034533167662967204
4,6,1.0009285721775378,0.00034505869933877865,-0.0004985387748762576
4,7,1.0009282715369967,0.0004130826955430259,-0.0006776496084162091
4,8,1.0009278956595704,0.0004888695516444716,-0.0008842561099179312
4,9,1.000927453033069,0.0005706799056780375,-0.0011175748859570073
4,10,1.000926937529219,0.0006547344606904576,-0.001374289721549086
4,11,1.000926376337322,0.0007352451131392187,-0.0016471975613177223
4,12,1.000925832790829,0.0008045680178893541,-0.0019250015588920563
4,13,1.0009254051311338,0.0008536773341342294,-0.0021918686894809966
4,14,1.000925231980848,0.0008731178766424432,-0.002428401039342406
4,15,1.0009254879840914,0.0008542297619566022,-0.002612575611815369
4,16,1.0009263710342982,0.0007903684746775797,-0.002721974848286668
4,17,1.0009280790603068,0.0006777979893019849,-0.0027354237422444385
4,18,1.0009307842816544,0.0005159719906276234,-0.00263494271869471
4,19,1.000934609432427,0.0003071036441301593,-0.0024061767256747116
4,20,1.000939617233679,5.5211090603088526e-5,-0.002038500522433284
4,21,1.0009458144327168,-0.0002349342156183043,-0.0015237027889552167
4,22,1.0009531661686126,-0.000558461414995624,-0.0008551154879271791
4,23,1.0009616016019545,-0.0009103330861950799,-2.6612059590431932e-5
4,24,1.0009709928563506,-0.0012845679255354752,0.0009667869495652174
4,25,1.0009811023833741,-0.0016731242899946193,0.0021278555970163076
4,26,1.0009915100740692,-0.0020649869919651905,0.003454831846433637
4,27,1.0010015515993516,-0.002445946782950235,0.004939689936015276
4,28,1.0010102912265064,-0.002799309013293942,0.006566536440165227
4,29,1.0010165651422545,-0.0031074723494441928,0.008311841531237853
4,30,1.0010190876286331,-0.0033540092374009676,0.010145430904984239
4,31,1.0010166191691496,-0.0035257242088262398,0.012033165146153312
4,32,1.0010081320691995,-0.003614170270570746,0.01393949404413343
4,33,1.0009929610551982,-0.003616329875381403,0.0158305271210067
4,34,1.0009708733910074,-0.0035344156814954356,0.017675861394198678
4,35,1.0009420935332274,-0.0033749950227058225,0.019450271719434635
4,36,1.0009072412665327,-0.003147724174085882,0.02113390743006228
4,37,1.0008672619371284,-0.0028640036091111313,0.02271255677797762
4,38,1.0008233037903624,-0.0025357604462380445,0.024176739704589733
4,39,1.0007766355084189,-0.0021744967072808807,0.02552132516509491
4,40,1.0007285327533446,-0.0017906263803872781,0.02674428319209391
4,41,1.0006802317812495,-0.0013930975226179804,0.027846270192444858
4,42,1.0006328520542922,-0.000989234486901911,0.02882946362149891
4,43,1.0005873939286947,-0.0005847558920410642,0.02969736681689104
4,44,1.0005446929685209,-0.0001838966802242597,0.03045384399189918
4,45,1.0005054488927647,0.00021039780567421544,0.03110317047123779
4,46,1.0004701967020637,0.000596255667392573,0.03164923726996256
4,47,1.0004393509476515,0.0009726486229095229,0.03209578634856548
4,48,1.0004131810295147,0.0013391778652159369,0.03244571303210084
4,49,1.0003918595434498,0.0016958654359316002,0.03270141565422547
4,50,1.0003754350146277,0.0020429701988782627,0.03286413305189323
4,51,1.0003638786395752,0.0023808060020877675,0.03293435782936797
4,52,1.000357052920806,0.0027095817651864133,0.03291117594921092
4,53,1.0003547552953977,0.003029231465950976,0.032792724290808754
4,54,1.000356684954103,0.003339265363266093,0.03257554589024953
4,55,1.0003624847437,0.0036385997288434554,0.03225511306611823
4,56,1.0003717113818398,0.003925421082429786,0.031825282815242224
4,57,1.000383878897843,0.004197027613255192,0.03127895340710525
4,58,1.0003984393598315,0.004449744372847457,0.030607800955056694
4,59,1.0004148310082623,0.004678832978516849,0.029803164043938856
4,60,1.0004324756044989,0.00487854711488285,0.02885633360445185
4,61,1.0004508295481365,0.005042217656512496,0.027759695567397318
4,62,1.0004693972442826,0.005162574292159983,0.02650784785999319
4,63,1.000487771860996,0.005232122144156793,0.025098766099909114
4,64,1.0005056515182178,0.005243807391204323,0.02353583096951363
4,65,1.0005228448625272,0.00519169271402963,0.02182826993839239
4,66,1.0005392724590951,0.00507185694752709,0.019993794739403162
4,67,1.0005549146662935,0.004883118219755725,0.018057035453450176
4,68,1.000569801858861,0.004627766062102005,0.016052216833228185
4,69,1.0005839231349056,0.004311846187572971,0.014018260034639496
4,70,1.0005972465814754,0.003945201317162663,0.012001192914684874
4,71,1.0006096266116566,0.0035408967901916005,0.01004566596764263
4,72,1.0006208947599262,0.0031143554495337467,0.00819786151896245
4,73,1.0006308095445093,0.00268185842192034,0.006494620603722945
4,74,1.0006392457670048,0.0022590807723330353,0.004968038647992125
4,75,1.0006461104170217,0.0018601681799599163,0.003635210299361751
4,76,1.000651356418262,0.0014972213392658678,0.0025071188670687367
4,77,1.0006549439381307,0.0011771026774332945,0.001578823248473653
4,78,1.000657328122443,0.0008975560177487717,0.0008379937802193936
4,79,1.0006591603453876,0.0006510740547961499,0.0002609554497227579
4,80,1.00066063094839,0.0004387373232649727,-0.00016922200457639223
4,81,1.0006611357853274,0.00027903755391859246,-0.0004703390637405138
4,82,1.0006602600407586,0.0002018507731123842,-0.0006649948918619928
4,83,1.000658413029601,0.0002318257350082304,-0.0008007807176012223
4,84,1.0006564114724321,0.0003753483645564129,-0.0009400701697334548
4,85,1.000654914596317,0.0006199312742035177,-0.0011517944408866514
4,86,1.000653942387843,0.0009319928701593824,-0.001481952298688914
4,87,1.000652371071636,0.0012598936788547205,-0.0019454967156554807
4,88,1.00065085689006,0.0015379216482487973,-0.002514212355581293
4,89,1.0006477224113535,0.0016852984777032556,-0.0031085303316010964
4,90,1.0006463028897163,0.0016263493380468325,-0.0036398474729894587
4,91,1.0006442520620973,0.0012565711012701884,-0.0039463293165688425
4,92,1.0006351869296721,0.0006118441585038167,-0.004006626580365281
4,93,1.0006731294249296,-0.00027924371629998686,-0.003914890498605065
4,94,1.0006480903257429,-0.0018370011654664422,-0.003092026837219154
4,95,1.000611927023852,-0.0032145391952888894,-0.0026042634385905336
4,96,1.000935136651632,-0.0046511586558619054,-0.0021938271402569356
4,97,1.000534186863779,-0.010075507522962159,0.0024248765577220372
4,98,1.0000066115314896,-0.014566275645234517,0.0029240736981831243
4,99,1.0008455023115315,-0.010839935036776624,-0.0021323619164114456
4,100,1.0012371745957065,-0.0015709652179913957,-0.002479888391419784
4,101,0.9997353525621082,0.05209793468878045,-0.0005535350366307041
5,1,1.000927719796105,6.827670139725634e-5,-7.383702691283321e-6
5,2,1.0009296003774852,0.00018480985834533643,-5.082907389823006e-5
5,3,1.0009293365931287,0.00027395596398632635,-0.00013334009371338993
5,4,1.0009291404757494,0.00035439295092984374,-0.00024935925298035167
5,5,1.0009288202279067,0.0004326982654497965,-0.00039396043495866083
5,6,1.000928497263794,0.0005147671265592778,-0.0005626043484517701
5,7,1.0009282713140328,0.000604170998972045,-0.0007519620343225727
5,8,1.0009280243967638,0.0006989255030714782,-0.0009601984581211548
5,9,1.0009277116095245,0.0007932926838470279,-0.0011826202984056627
5,10,1.0009273550672775,0.0008788545921067663,-0.0014105051939217446
5,11,1.0009269684963422,0.0009445538212846455,-0.0016306455255475137
5,12,1.0009265890361672,0.0009773684552992455,-0.0018261731717955614
5,13,1.0009262804068924,0.0009635737100127607,-0.001976944182224012
5,14,1.0009261317580567,0.0008904353586234034,-0.0020617871623646576
5,15,1.0009262592223684,0.0007480066911216382,-0.002060060844442783
5,16,1.0009268000313516,0.0005304683460939664,-0.0019541878252003404
5,17,1.0009278984014138,0.00023655856875953878,-0.0017303949935036805
5,18,1.0009296939542887,-0.00013107984152342504,-0.0013792422512144
5,19,1.0009323182507346,-0.0005673951076157527,-0.0008938121010073779
5,20,1.0009359087392633,-0.0010666061068953113,-0.00026807847268377487
5,21,1.0009406280000237,-0.0016232507532577159,0.0005055922805912777
5,22,1.0009466655945152,-0.0022320027595225866,0.001436749202942296
5,23,1.0009541953653787,-0.0028862335093697115,0.0025362797889412264
5,24,1.0009632776554598,-0.003575909960338326,0.0038130196729801898
5,25,1.0009737351226053,-0.004285795327315514,0.005270370841228153
5,26,1.0009850333866224,-0.004994822138968486,0.006902153761893297
5,27,1.0009962301320696,-0.005677110765913987,0.008690963820305358
5,28,1.0010060048675635,-0.006304515647130871,0.010607699455173439
5,29,1.0010128095190847,-0.00685008756355515,0.012614457881511368
5,30,1.001015066557183,-0.007291508884175324,0.01466791947883899
5,31,1.001011411919369,-0.007613656051556015,0.016724446448133905
5,32,1.0010008575774472,-0.007809762284171279,0.018743472169928038
5,33,1.0009829213261858,-0.007881169921343597,0.020690984711442983
5,34,1.000957616294542,-0.007835976364358227,0.02254028263712567
5,35,1.000925435042299,-0.007687102569310277,0.024272884676148253
5,36,1.0008872147459633,-0.007450228252600468,0.025877092039683896
5,37,1.0008440704116706,-0.007141968550746092,0.02734759279742936