TITLE="CMs_NON_Orthogonal Re = 10000.0"
VARIABLES = X,Y,Rho,U,V
ZONE
I = 101	J = 101
F=POINT
1,1,1.0009458625955923,1.3446483608339038e-6,-2.7243190999412555e-6
1,2,1.0009469169788443,4.845703764949002e-6,-1.7623450040068573e-5
1,3,1.0009468417892546,5.028104996312385e-6,-3.692384109967203e-5
1,4,1.0009470889230525,5.565811251315281e-6,-5.921078801701018e-5
1,5,1.0009473520148615,5.932849510051443e-6,-8.59476287824415e-5
1,6,1.0009476188124276,5.746089234878464e-6,-0.00011818914044615592
1,7,1.0009479126723682,4.583588410786949e-6,-0.00015676047086232164
1,8,1.0009482471015363,1.8634472162547132e-6,-0.00020277106085290477
1,9,1.0009486154253013,-3.253838196937996e-6,-0.0002572861985766624
1,10,1.0009490021597969,-1.1894751074292524e-5,-0.00032150446742579747
1,11,1.0009493819562778,-2.5473465566337257e-5,-0.00039628908315106527
1,12,1.0009497295001804,-4.567830042326008e-5,-0.0004822487816798678
1,13,1.0009500289075535,-7.443642818401649e-5,-0.0005792361106216115
1,14,1.000950288596129,-0.00011384340953948733,-0.0006863776104504567
1,15,1.0009505574840158,-0.0001660652415075195,-0.0008016191094349733
1,16,1.0009509423432528,-0.00023319390585212004,-0.000921804156682656
1,17,1.0009516182372753,-0.00031709435674304545,-0.0010423956424310164
1,18,1.0009528293201804,-0.00041924117005778675,-0.0011577123661893692
1,19,1.000954873358392,-0.0005405913073330375,-0.0012608888593798058
1,20,1.000958073381331,-0.0006814781995631354,-0.001344249138923371
1,21,1.0009627362527551,-0.000841554769206165,-0.0013994257800811478
1,22,1.0009691060857813,-0.001019757991371506,-0.001417780986142606
1,23,1.0009773139142448,-0.0012143152115485364,-0.0013906255557627645
1,24,1.0009873309481019,-0.001422771613457434,-0.0013097010000018192
1,25,1.000998926317483,-0.001642061284489535,-0.0011675554004478813
1,26,1.0010116363472639,-0.0018686091757406118,-0.0009581604250230274
1,27,1.0010247487633703,-0.00209848016212091,-0.0006774402095183501
1,28,1.0010373136689965,-0.0023275556446746117,-0.0003239059875652239
1,29,1.001048188612976,-0.0025517362081708575,0.0001009225857757784
1,30,1.0010561218484046,-0.002767143502119134,0.0005921952279312648
1,31,1.001059863133404,-0.002970327014690495,0.0011417469056138612
1,32,1.0010582893073365,-0.0031584668644079046,0.00173835055304751
1,33,1.0010505254494706,-0.0033295468663291795,0.0023683878943236837
1,34,1.001036044599494,-0.0034824187677077565,0.0030167513820961705
1,35,1.0010147270579,-0.003616741116786602,0.0036678838390227686
1,36,1.0009868718458597,-0.0037328230887963216,0.004306700350110796
1,37,1.0009531588084783,-0.003831439406681747,0.004919359547463083
1,38,1.0009145745125418,-0.003913647778887382,0.0054937877758068875
1,39,1.0008723146892575,-0.003980638049737161,0.006019989151037534
1,40,1.0008276839816903,-0.004033611390932114,0.006490144036172123
1,41,1.0007820019161837,-0.004073698372553355,0.006898541332736913
1,42,1.00073652948167,-0.004101903558412736,0.0072414100202166575
1,43,1.0006924125279348,-0.004119079917817086,0.007516659203100823
1,44,1.000650650271104,-0.004125918562962067,0.007723630988335749
1,45,1.0006120749261957,-0.004122956999608163,0.007862802543107842
1,46,1.0005773519892205,-0.0041105923575166,0.007935587711369256
1,47,1.0005469801562945,-0.004089104901235697,0.007944077502045397
1,48,1.000521308144227,-0.004058679578677298,0.007890949541857324
1,49,1.0005005396329258,-0.004019433995840914,0.007779257928595439
1,50,1.0004847564777002,-0.003971439990210184,0.007612469339484286
1,51,1.0004739191404795,-0.003914751977657773,0.007394271325101718
1,52,1.0004678930715583,-0.0038494239308392328,0.007128743408120157
1,53,1.0004664400596024,-0.003775538614341048,0.006820122171369371
1,54,1.0004692500269265,-0.0036932147411743933,0.006473129266035476
1,55,1.000475921402369,-0.0036026419277875223,0.006092592981604822
1,56,1.0004860042031445,-0.003504067181207017,0.00568399604415509
1,57,1.0004989681403582,-0.003397848212569524,0.005252784067274932
1,58,1.0005142648514085,-0.00328439556888421,0.004805287118585481
1,59,1.000531281362127,-0.003164274522556064,0.004347411631930246
1,60,1.000549429341986,-0.0030380538322849955,0.0038862850381486966
1,61,1.0005680792695193,-0.0029065228566607787,0.0034277669436107677
1,62,1.000586681708669,-0.0027703526739444435,0.0029795645163176133
1,63,1.0006046746528927,-0.002630557010793544,0.0025465043033932096
1,64,1.0006216362475406,-0.0024878049409858393,0.0021365939979698175
1,65,1.000637157695993,-0.0023433235945324806,0.0017521601511269076
1,66,1.0006510166419773,-0.002197672464949885,0.0014013908237707187
1,67,1.0006630123576223,-0.0020522377102661364,0.0010824724432424522
1,68,1.0006731505846347,-0.0019074285528283622,0.0008038898006262146
1,69,1.0006814452297481,-0.001764674321043389,0.0005585655546478276
1,70,1.0006880765403796,-0.0016243282591031354,0.0003555079621397362
1,71,1.0006932012526988,-0.0014876369130375957,0.00018251996020928613
1,72,1.0006971389458337,-0.0013549453965894503,4.9086484921507196e-5
1,73,1.0007001154734203,-0.0012274075528582685,-6.0804950392587114e-5
1,74,1.0007023260960954,-0.0011054180874356685,-0.0001365820497987319
1,75,1.0007039381464362,-0.000989597280229878,-0.00019632456976516717
1,76,1.000705344663119,-0.0008801187615238993,-0.00022892775266558342
1,77,1.000706749983868,-0.0007778998431763895,-0.00025348131951984543
1,78,1.0007080219126547,-0.0006835284231513533,-0.00025601718051944156
1,79,1.0007088750519952,-0.0005974095027493579,-0.00025387133977953125
1,80,1.000709414945308,-0.0005188281999294313,-0.00023130922693633855
1,81,1.0007099726649915,-0.000447045970893927,-0.0002082987521154882
1,82,1.0007109136276597,-0.00038081560365974026,-0.000171015735631487
1,83,1.0007122974639415,-0.00031951032089673817,-0.00014278062138612358
1,84,1.0007140692219265,-0.00026224590218565966,-0.00010969092521044987
1,85,1.0007161085179779,-0.00020943647258695223,-9.65405266378112e-5
1,86,1.0007181864763295,-0.0001610714372601719,-8.748740691947876e-5
1,87,1.0007203483589557,-0.00011961408633988233,-0.0001076377829183862
1,88,1.000722087004612,-8.663872159589829e-5,-0.00013379286097335965
1,89,1.000723417400294,-6.394523421203575e-5,-0.00018443684675992374
1,90,1.0007242661349793,-5.5065210211778704e-5,-0.0002212544065035859
1,91,1.000724340662307,-5.448095832024683e-5,-0.00025008121641233486
1,92,1.0007334445153933,-8.215975365736793e-5,-0.00020925518353313911
1,93,1.0007367897988027,-0.000140232493282155,-4.020031543629923e-5
1,94,1.0007372957850036,-0.0002191140597500443,0.00034723452740191416
1,95,1.0007367890900303,-0.0003062147530135134,0.000996702918238075
1,96,1.0007954369710457,-0.0002755727996165113,0.0017606937053931972
1,97,1.000981435637903,-0.0010314047392717776,0.00343401495277196
1,98,1.0002960027579462,-0.00109365907977788,0.006606759862725649
1,99,1.000757392230335,0.0005605786586618002,0.007654252338135492
1,100,1.0019353007638852,-0.007698204563285392,0.01641335955263477
1,101,0.9965233349524532,0.02652109563761647,0.01399116535860496
2,1,1.0009446128438566,1.846078761860249e-5,-5.643749207763021e-6
2,2,1.0009456460098023,3.93374031760325e-5,-3.567469997997539e-5
2,3,1.0009450699552431,4.7256503884198055e-5,-8.383521226521609e-5
2,4,1.0009448928183287,5.6587375846255e-5,-0.00014305407242489986
2,5,1.000944655883307,6.944288873541231e-5,-0.00021492288746451956
2,6,1.000944296505955,8.515282451262472e-5,-0.00030262632589413797
2,7,1.0009438589635522,0.0001042780054751617,-0.00040852863699494406
2,8,1.0009433234908816,0.00012775909150673293,-0.000535441610750512
2,9,1.000942666733526,0.00015650776407523126,-0.0006861592884732484
2,10,1.0009418640318177,0.00019129001213790035,-0.0008632950705559677
2,11,1.0009409050137903,0.0002326294014653422,-0.001068400421921365
2,12,1.0009398050062002,0.0002807466991728964,-0.0013015939573605949
2,13,1.0009386242166984,0.00033551536904300475,-0.0015606733951392768
2,14,1.0009374835691618,0.0003964569172435141,-0.0018408506665915957
2,15,1.000936581484679,0.0004627789293934039,-0.0021341754645651206
2,16,1.0009361978822968,0.0005334568745709795,-0.002429715187937511
2,17,1.000936688685298,0.0006073422785784787,-0.0027135892429898827
2,18,1.0009384597095055,0.0006832549482369008,-0.002969712520497807
2,19,1.0009419313769436,0.0007600310512591343,-0.003180303060794214
2,20,1.0009474909778848,0.0008365180911420414,-0.003326811500708451
2,21,1.000955447860268,0.0009115487126137161,-0.0033904421163368386
2,22,1.0009659872759566,0.000983941882620074,-0.003352922354595195
2,23,1.0009791336361564,0.0010525888486961066,-0.003196946080700265
2,24,1.0009947140090507,0.0011166479499161454,-0.002906973860323219
2,25,1.001012329847215,0.0011758305777878639,-0.002469947640711409
2,26,1.001031330226314,0.0012307011901359266,-0.0018764262608760992
2,27,1.0010508042761266,0.0012828907894649794,-0.0011216001655170735
2,28,1.001069595962154,0.0013351323742672027,-0.00020641600044872153
2,29,1.0010863594983732,0.0013910816708522266,0.0008617754584434706
2,30,1.001099645245789,0.001454930519595202,0.0020688915364972106
2,31,1.001108021929189,0.0015308644615312128,0.003394549720380601
2,32,1.0011102116494224,0.0016224562760960624,0.004813008336384422
2,33,1.00110523001785,0.001732132671065317,0.006294782309126942
2,34,1.001092491441214,0.0018608402193723936,0.0078084799005344
2,35,1.001071873607666,0.0020079745177640604,0.009322761228223257
2,36,1.0010437152689373,0.002171547910797198,0.010807977915626875
2,37,1.0010087700486918,0.002348520765436484,0.012237466727662535
2,38,1.000968111121526,0.002535200257676851,0.013588327088672324
2,39,1.0009230281067243,0.0027276285331591273,0.014841777041802404
2,40,1.000874910732494,0.0029219037241210197,0.01598314096321789
2,41,1.0008251592997228,0.0031144127957041324,0.017001542267975886
2,42,1.0007751006645103,0.003301970439823702,0.01788949514295825
2,43,1.0007259440962657,0.003481881630781274,0.01864231081519406
2,44,1.0006787397841335,0.003651939486944413,0.01925765455701219
2,45,1.0006343762186187,0.0038103865162778905,0.019734910260817355
2,46,1.000593566800091,0.003955844439926939,0.020074922641734737
2,47,1.00055687258402,0.004087241574305003,0.02027940201692374
2,48,1.0005246984094267,0.004203726865694126,0.02035096517705352
2,49,1.000497327873806,0.00430460443267922,0.020292543963160558
2,50,1.0004749150452603,0.004389256675057018,0.020107801383051658
2,51,1.000457526157031,0.004457105883574839,0.01980042889107004
2,52,1.0004451179551612,0.004507553841484316,0.019375035117779004
2,53,1.000437587612378,0.004539981568464997,0.018836146485322402
2,54,1.0004347310663635,0.004553705464784232,0.01818972613263591
2,55,1.0004363082568277,0.004548026160861112,0.017441599184188736
2,56,1.000441974392981,0.004522198494384485,0.01659984895102849
2,57,1.0004513726852846,0.004475542607435233,0.015672248616018965
2,58,1.0004640291415479,0.004407420766228143,0.014669900958575238
2,59,1.00047949019181,0.004317420855589434,0.013603062595921927
2,60,1.000497168092902,0.004205323101018398,0.012486553727056437
2,61,1.0005165456283491,0.004071351222837684,0.011333120818008377
2,62,1.000536955148418,0.003916096278324731,0.010161366610928996
2,63,1.0005578743787844,0.0037408028679342237,0.008985552157266666
2,64,1.0005786185471,0.0035472103740428656,0.007827105143127415
2,65,1.0005987463905879,0.003337803777201269,0.00669957867178909
2,66,1.0006176446810393,0.0031155422344907855,0.005625157349001835
2,67,1.000635049146553,0.0028840217777224117,0.004613473448168587
2,68,1.0006505071048415,0.0026470928870622025,0.003684723133874906
2,69,1.0006640017504604,0.0024088609142678082,0.002841371846980194
2,70,1.0006752956875964,0.0021732761577319083,0.002099177399292448
2,71,1.0006846155007234,0.0019442335978469712,0.0014515407661779402
2,72,1.000691913074383,0.0017250362556825796,0.0009086420444757351
2,73,1.0006976412725823,0.0015181522570178053,0.0004550069064226386
2,74,1.0007018653204018,0.0013252191007229516,9.638813978614609e-5
2,75,1.0007049819909335,0.0011480282877461604,-0.0001886792208777667
2,76,1.0007070564905656,0.000987784742388183,-0.0003970994470507166
2,77,1.0007087925740512,0.000843484188505068,-0.0005547851501675672
2,78,1.0007103003159117,0.0007120824671241589,-0.0006571617769853517
2,79,1.0007116420411515,0.0005917809813546958,-0.0007259895752299299
2,80,1.0007122328222091,0.00048416705287149714,-0.0007506747718719427
2,81,1.0007122778394204,0.0003928364099494226,-0.0007559887637562348
2,82,1.0007118377091062,0.00032092388205615395,-0.0007400904119000272
2,83,1.0007115188106717,0.0002698536215962675,-0.0007408870405666155
2,84,1.0007110371265076,0.00023927626048668996,-0.0007637128767235001
2,85,1.0007105057171177,0.00022884344007515487,-0.0008502815331146534
2,86,1.0007094433905463,0.00023635796675027,-0.001002146702038912
2,87,1.0007075767128175,0.0002567835419677032,-0.0012527350477419352
2,88,1.000705148487527,0.00027909064518544924,-0.0015840152376584127
2,89,1.000701720854814,0.0002877591800588905,-0.0019987151897591007
2,90,1.0006987787309276,0.0002686496710534979,-0.00244532231906778
2,91,1.000699383790325,0.00018668723178240487,-0.002874972682256862
2,92,1.000703949795486,9.336554273004791e-6,-0.0031793580099694673
2,93,1.000729304120905,-0.0003539670940638312,-0.0032489532490498608
2,94,1.000738989617543,-0.0008268990502648515,-0.0028830187535143896
2,95,1.0007967554892685,-0.0011675599918383808,-0.0022378796444228457
2,96,1.0008617821473718,-0.0022947718368752893,-0.000497965787048542
2,97,1.000763732971721,-0.0037715512106551528,0.001935951187787083
2,98,1.0015189750385078,-0.004534663856802104,0.003921819582872556
2,99,1.0004218250555226,-0.0107993789669608,0.016148472609298435
2,100,0.9996351372656846,-0.012212865329559446,0.021799773111622334
2,101,1.0037844980012305,0.051533490016122646,0.005625885126786848
3,1,1.0009446554523955,3.209835944432673e-5,-5.545277590162798e-6
3,2,1.0009462713533757,8.213908993486337e-5,-3.933714662086592e-5
3,3,1.0009457865946307,0.00010912194113162938,-0.0001026333246647738
3,4,1.0009453236674193,0.00013247062656729703,-0.00018906141806493513
3,5,1.0009450065740921,0.00016040901888619366,-0.0002951894092894373
3,6,1.000944636012522,0.00019296619058693684,-0.0004235885986534568
3,7,1.000944147799646,0.00022936652887471673,-0.0005779248184071606
3,8,1.0009435531884043,0.0002693517136667527,-0.0007613460796645046
3,9,1.0009428209938045,0.0003117750668752736,-0.0009763899053106433
3,10,1.0009419311144294,0.0003540737925959712,-0.0012245080912529807
3,11,1.0009408860664704,0.0003921707684739082,-0.0015047448830412325
3,12,1.0009397222385066,0.00042050537041110034,-0.0018131459578853981
3,13,1.0009385259308028,0.00043226238893641724,-0.0021417866038236184
3,14,1.0009374460265021,0.00041979211804005906,-0.002478803351489278
3,15,1.0009367005295593,0.0003752266698043016,-0.00280835564825203
3,16,1.000936571638374,0.00029121613382209133,-0.003111664699633191
3,17,1.0009373876001193,0.00016163388874728128,-0.0033679207539722917
3,18,1.0009394941884833,-1.791551807104445e-5,-0.0035558574998014753
3,19,1.0009432199136792,-0.0002498808343646167,-0.003654701598266856
3,20,1.0009488440261236,-0.0005348063931594538,-0.003645232513782685
3,21,1.0009565698384826,-0.0008714962337816761,-0.0035099765711164846
3,22,1.000966506192279,-0.0012571237717162597,-0.0032335349227254053
3,23,1.0009786494857276,-0.001687161273761697,-0.0028024695786894116
3,24,1.0009928603661715,-0.002155114326101895,-0.0022058193858302323
3,25,1.0010088273144124,-0.0026521870230013195,-0.0014356416755429416
3,26,1.001026023489728,-0.0031670916800853517,-0.00048827093070712954
3,27,1.0010436710123278,-0.0036862090471059027,0.0006346331718030014
3,28,1.0010607309063864,-0.004194195021544684,0.001924882701988636
3,29,1.00107593328417,-0.004675009511807043,0.003367383403167509
3,30,1.0010878565464505,-0.005113241175401244,0.00494018724289309
3,31,1.0010950588035261,-0.005495520115215903,0.006615704375975124
3,32,1.0010962387517288,-0.0058117423363397615,0.008362329272194031
3,33,1.00109039799892,-0.006055852902676785,0.010146788710056493
3,34,1.0010769611143326,-0.00622604140427349,0.011936202445024436
3,35,1.001055839321845,-0.006324372079005027,0.013700121436547192
3,36,1.0010274191073703,-0.006355994869033513,0.015411709137923025
3,37,1.0009925009952676,-0.00632815351140038,0.01704862609578284
3,38,1.0009521919872337,-0.006249184319820345,0.018593056008319366
3,39,1.0009077943268614,-0.0061276545688892315,0.020031633388251615
3,40,1.000860687277958,-0.005971706528351381,0.021354784092208492
3,41,1.000812239045347,-0.00578863002223026,0.022556245570746945
3,42,1.000763727708278,-0.005584630274766968,0.023632227696609918
3,43,1.0007163009038542,-0.005364761054704735,0.024580917081381787
3,44,1.0006709408407077,-0.0051329638628213325,0.025401738431003025
3,45,1.0006284624312962,-0.00489218933529167,0.026095002654427355
3,46,1.0005895068833053,-0.004644547848009961,0.02666136440103696
3,47,1.000554559602837,-0.0043914912088146765,0.027101625764327546
3,48,1.0005239563546549,-0.004133979140100609,0.027416403023114704
3,49,1.0004979062242672,-0.003872659808018337,0.02760603258355252
3,50,1.0004765012987524,-0.00360801304745843,0.027670456159772695
3,51,1.0004597365067427,-0.003340512171755861,0.02760915221636966
3,52,1.0004475206124173,-0.003070733249002292,0.027421292897258098
3,53,1.0004396891774872,-0.0027994974377693986,0.027105604379933076
3,54,1.0004360191505743,-0.0025279401455447644,0.026660923297955913
3,55,1.0004362326950593,-0.0022576304409155233,0.026085842449157827
3,56,1.0004400198391925,-0.00199058343893185,0.025379891424523668
3,57,1.0004470299356425,-0.0017293400136003307,0.02454272004753126
3,58,1.000456907135165,-0.0014768900916494133,0.02357623987494476
3,59,1.0004692637610044,-0.0012366829388900744,0.0224829056591809
3,60,1.0004837323649904,-0.001012421792288688,0.02126926920504518
3,61,1.0004999133078372,-0.000807979103489649,0.01994262319867397
3,62,1.0005174460841197,-0.0006270438617929462,0.01851652759045363
3,63,1.0005359259099746,-0.000472954870938572,0.01700471719545575
3,64,1.0005549966495226,-0.0003482424947248888,0.015429277868750965
3,65,1.0005742406349194,-0.00025447324370223354,0.013810429054230664
3,66,1.000593296089874,-0.00019181723987621654,0.012178186557444223
3,67,1.0006117399280299,-0.00015904430909543325,0.010556638781133243
3,68,1.0006292171949513,-0.00015331219429911639,0.008980166467951425
3,69,1.000645350762987,-0.00017047881156812683,0.007471328048300004
3,70,1.0006598623688894,-0.00020522388550901712,0.006062775617354455
3,71,1.000672524603855,-0.0002515003414616592,0.004768856000679829
3,72,1.0006831961195737,-0.0003029858969082104,0.0036142372505225655
3,73,1.0006918659654942,-0.00035401685044218994,0.0025999540039192003
3,74,1.000698642982793,-0.0004000471251244915,0.001738726852418902
3,75,1.0007037461072705,-0.0004368937491443996,0.0010174218089639394
3,76,1.0007072642889268,-0.00046056130401449355,0.00043843508679646914
3,77,1.0007095295747255,-0.00047015755266648605,-2.290608218572385e-5
3,78,1.0007110460988895,-0.00047035521324882685,-0.0003726140030036604
3,79,1.0007122627817913,-0.00046711588947895614,-0.0006387941033824837
3,80,1.0007128970708823,-0.00045946694653054276,-0.0008215165132361317
3,81,1.0007125391773053,-0.0004370425825859547,-0.0009453666352818451
3,82,1.0007110767013132,-0.00038530173739914706,-0.0010193944209422139
3,83,1.0007089745802957,-0.000292983869079191,-0.0010912843622298176
3,84,1.000706642958432,-0.00015608988179765287,-0.0011935425694144727
3,85,1.0007042880018024,2.256144608981628e-5,-0.0013849132357354724
3,86,1.0007016668650974,0.00023267224081592182,-0.001690817098868502
3,87,1.0006987279594965,0.00044992513064687933,-0.00214370620699716
3,88,1.000694261595357,0.000642262106616975,-0.0027216840829154703
3,89,1.0006901555678256,0.000771073684307421,-0.00340637639078447
3,90,1.0006860207981678,0.0007853334780580168,-0.00410304695115205
3,91,1.0006837170842466,0.0006481292942000789,-0.004741818320718717
3,92,1.0006877722112,0.0002594628660127612,-0.005170990670015506
3,93,1.0006813885927488,-0.00036917891093328096,-0.005337360746685528
3,94,1.0007375944127168,-0.0011451619709112743,-0.005360365615444072
3,95,1.0007444446167961,-0.002492919049524611,-0.004396107290769843
3,96,1.000615223511572,-0.0036374315708014803,-0.0033572579640450658
3,97,1.0010678446728687,-0.005296910058724581,-0.0029698087561042695
3,98,1.0006944194003615,-0.012395157734270693,0.0035583670471596345
3,99,0.9995323562691926,-0.016975236995983623,0.0059290844488932
3,100,1.0005936887062827,-0.0027498486279602928,-0.000627717994058805
3,101,1.0005127967614071,0.05518578625790071,-0.0019274393871381182
4,1,1.0009442935656256,5.3399139653813126e-5,-6.818139862079488e-6
4,2,1.000946124445595,0.0001387344818232745,-4.6649828498824e-5
4,3,1.000945868509804,0.00019716998416778272,-0.00012243333769489768
4,4,1.0009454310822592,0.00024695001896526915,-0.00022971384704732924
4,5,1.000944958878145,0.0002999815133851029,-0.0003633389333831079
4,6,1.0009446109312747,0.0003619328830483202,-0.0005213458551870195
4,7,1.000944227140689,0.00043371864801630076,-0.0007059656419128531
4,8,1.0009437408812876,0.000515076396574853,-0.0009195975278892244
4,9,1.0009431714985124,0.0006050767117376414,-0.001162086626011257
4,10,1.0009425214285799,0.000700937358771341,-0.001430818603281199
4,11,1.0009418173018736,0.0007977963588080162,-0.0017194401157836412
4,12,1.000941120635796,0.0008890442656658765,-0.0020175321036753555
4,13,1.0009405314940598,0.0009669494328198998,-0.0023101515140996087
4,14,1.0009401938737257,0.0010235636273340691,-0.0025788057751642756
4,15,1.0009402898696782,0.0010517397104241408,-0.0028023983965645123
4,16,1.0009410262963327,0.0010460377148065355,-0.0029593058166740315
4,17,1.000942612155063,0.0010032497393223036,-0.0030287903717466664
4,18,1.000945235768423,0.0009223685648436352,-0.002992638822088017
4,19,1.0009490453277077,0.0008040360217038162,-0.002835391212520042
4,20,1.000954142320727,0.000649741094001143,-0.0025443857960761977
4,21,1.0009605855758648,0.0004611641148540937,-0.0021086616067625226
4,22,1.0009684014385614,0.00024003192501124892,-0.0015184404380741317
4,23,1.0009775820765379,-1.1358718662015596e-5,-0.0007645679331557524
4,24,1.000988058709489,-0.00028907957635625154,0.00016058556087018543
4,25,1.000999645442134,-0.0005863730481281921,0.001261905794580724
4,26,1.001011966610573,-0.0008928019822624926,0.002539248011702218
4,27,1.0010243921825557,-0.0011941364682669599,0.003985751183860638
4,28,1.0010360018840554,-0.0014731414835150412,0.00558625449471919
4,29,1.0010456115577546,-0.001711219300136655,0.007317403232582638
4,30,1.001051867534383,-0.0018906030911355228,0.009148545366886144
4,31,1.0010534129857476,-0.001996617421754982,0.01104435008867797
4,32,1.0010490696779355,-0.0020194539115026577,0.012967488638145215
4,33,1.0010380113483062,-0.001955094324084182,0.01488189829765496
4,34,1.0010198613483314,-0.0018052657182382706,0.016754904945192384
4,35,1.0009947340949619,-0.0015766015630520418,0.018559134339022218
4,36,1.000963184025702,-0.0012793062449330233,0.020272906130905734
4,37,1.000926131784255,-0.000925675603591055,0.021880557684833758
4,38,1.000884736342506,-0.0005287249126786776,0.023371569405917756
4,39,1.0008402985550264,-0.00010109948483259234,0.024740117828981802
4,40,1.0007941403499827,0.00034569140542453213,0.02598378398659457
4,41,1.0007475457214317,0.0008017155528984128,0.027103046757449102
4,42,1.0007016808169413,0.0012588046881414196,0.02810006954339958
4,43,1.0006575832637252,0.0017105386673896932,0.028978434154851476
4,44,1.0006161190382081,0.0021521097481751877,0.029742145521605565
4,45,1.0005780059113296,0.00258010454587532,0.030395643833043485
4,46,1.0005437903188832,0.0029922631170892096,0.030942993583074806
4,47,1.000513886957748,0.0033872231812035747,0.03138811276464691
4,48,1.0004885615270418,0.0037642880269256225,0.0317340654448927
4,49,1.0004679739755833,0.004123200572999151,0.03198343584086526
4,50,1.0004521598943354,0.004463956033728565,0.032137655185156676
4,51,1.0004410711866105,0.004786614436995859,0.032197469508853646
4,52,1.0004345548177649,0.00509115622514628,0.03216226749764295
4,53,1.00043238902565,0.005377318619851663,0.03203061754987065
4,54,1.0004342622634235,0.005644485164947789,0.03179961843933954
4,55,1.000439805552636,0.005891532563724685,0.031465502844827395
4,56,1.0004485773649006,0.00611675877260199,0.03102311625312056
4,57,1.0004600936688597,0.0063177458244992575,0.030466587099768655
4,58,1.0004738262334611,0.006491359739080808,0.029789158973054862
4,59,1.0004892306791517,0.006633667084961595,0.028983877670233645
4,60,1.0005057649244204,0.006740074625575498,0.028044143675957884
4,61,1.0005229103451654,0.0068053700554713435,0.026964198426786778
4,62,1.0005402119693494,0.00682408522443809,0.025740878096555033
4,63,1.000557278292104,0.00679073271271067,0.024373317006119517
4,64,1.000573835664301,0.00670042841637575,0.022866401447640065
4,65,1.0005896839536959,0.006549316585709739,0.021228546784480436
4,66,1.0006047558170734,0.006335349023744148,0.019477247899140245
4,67,1.0006190084289095,0.006058719969549836,0.01763324656544808
4,68,1.0006324921198047,0.0057224991226174264,0.01572850262847465
4,69,1.0006451894311117,0.0053327371281324054,0.013795014033963406
4,70,1.0006571281725571,0.00489857659086023,0.011875640216701067
4,71,1.000668195339991,0.004431741838834576,0.010006764650959217
4,72,1.0006783155140502,0.00394597787631923,0.008232939539826062
4,73,1.0006872793945243,0.003455824711214,0.006584094615460884
4,74,1.000695016973693,0.0029754221377236603,0.005094674400406527
4,75,1.0007014338616471,0.0025176703558169675,0.0037777181073776946
4,76,1.0007065411991,0.002094413715036489,0.002650452232614515
4,77,1.0007102079288681,0.0017146305565399389,0.001706998295967564
4,78,1.0007126687487775,0.0013800901076292237,0.0009449816438854739
4,79,1.0007144359079962,0.0010847229130832748,0.0003387761044031361
4,80,1.0007159364011693,0.0008248573201690459,-0.00012360283019330974
4,81,1.000716795127378,0.0006110260483305889,-0.00046441290380420843
4,82,1.0007164899606897,0.00046878363092815197,-0.0006943477241072256
4,83,1.000715061252433,0.00042534135674017633,-0.0008546290016789222
4,84,1.000713170337985,0.0004940709358482401,-0.0009924635548410389
4,85,1.0007116357906474,0.0006697443204802901,-0.0011791348490590116
4,86,1.000710872878091,0.0009232372729157292,-0.0014605814044182377
4,87,1.0007098802129,0.001202218704921477,-0.001865632687865421
4,88,1.000709324752371,0.0014383404610633114,-0.002370260227942315
4,89,1.0007073791117889,0.001551091753734152,-0.0029063735583361415
4,90,1.0007071172364974,0.001470291753486345,-0.0033872980761424556
4,91,1.0007064856254457,0.001099435457606672,-0.0036633476099796948
4,92,1.000698169126243,0.0004796498030021677,-0.0037103412281710895
4,93,1.000736732938983,-0.0003547490240514278,-0.0036356139391245266
4,94,1.0007123532396975,-0.0018255060975677626,-0.0028486011819494512
4,95,1.0006734931650798,-0.0030887647111401133,-0.0024007849539859896
4,96,1.0009968213438318,-0.004372300256432405,-0.0020561225193276834
4,97,1.000596432689696,-0.009708785221880591,0.002539237605405761
4,98,1.0000707367064499,-0.014261698101558399,0.003050018929631301
4,99,1.0009051314270312,-0.01064067125331542,-0.0020772112530004078
4,100,1.0012918800741166,-0.0015284751433842698,-0.0024789390844727325
4,101,0.9997945935161493,0.0520805386808621,-0.0005518396975827644
5,1,1.000944013143339,7.273183567747006e-5,-7.764969748708442e-6
5,2,1.000946032137538,0.00019909700521123907,-5.3508467758054156e-5
5,3,1.0009457468506147,0.00029261310180715727,-0.00014026852082437308
5,4,1.0009454420836903,0.00037145511365911166,-0.0002611210612703136
5,5,1.0009450070965176,0.00044767059309020244,-0.00041062599518797
5,6,1.000944573440779,0.0005294093869277021,-0.0005845858692637718
5,7,1.0009442304611098,0.000619721079603007,-0.0007805103327810859
5,8,1.0009438347721868,0.0007157178245221014,-0.0009976641040089552
5,9,1.0009433297253876,0.0008112918299681954,-0.0012324320770084646
5,10,1.0009427383884835,0.0008977688034936741,-0.0014770349053768545
5,11,1.0009420694447688,0.0009635078186119043,-0.001719262289474196
5,12,1.0009413505479077,0.0009946905412057097,-0.0019432108848106162
5,13,1.000940641813945,0.0009768608308592269,-0.0021296044430568237
5,14,1.00094004036314,0.0008966922500935186,-0.002257913524204079
5,15,1.0009396833397715,0.0007436294461432311,-0.0023078820669887538
5,16,1.000939742948061,0.0005109556238247835,-0.0022618638291315076
5,17,1.0009404141561467,0.00019596429107485755,-0.0021054311633714245
5,18,1.0009419056608526,-0.00020079461055751664,-0.0018277493148179337
5,19,1.0009444377454648,-0.0006768379017141095,-0.0014198850322757568
5,20,1.0009482551550408,-0.0012289813952369802,-0.0008733902036309256
5,21,1.0009536407905908,-0.001853808784247525,-0.0001782088210241852
5,22,1.0009609106659834,-0.002546994937139875,0.0006773927386434775
5,23,1.0009703626976998,-0.0033016321397209203,0.0017061217725725566
5,24,1.0009821722342818,-0.004106193345741319,0.0029184616249132303
5,25,1.000996257029992,-0.0049430031650975585,0.00431947608268455
5,26,1.001012142799191,-0.005787921564914396,0.005904822306589889
5,27,1.0010288837209833,-0.006611591695371541,0.0076588881807651546
5,28,1.0010450641714084,-0.007382149037134975,0.009553959220679137
5,29,1.0010589309881233,-0.00806887837039859,0.011552619780787093
5,30,1.001068606641524,-0.008645939975411203,0.013610949654076188
5,31,1.0010723691959051,-0.009095271624649254,0.015683632420366814
5,32,1.0010688730914823,-0.009408034339063487,0.01772771859483639
5,33,1.001057326307504,-0.009584493064360758,0.019706481604713097
5,34,1.0010375185641867,-0.009632611348915411,0.021590630513841476
5,35,1.0010098131109042,-0.009565921066448727,0.023359432050629115
5,36,1.0009750108350188,-0.009401190606162756,0.024999465050388258
5,37,1.0009342601493987,-0.009156334284867024,0.026504168563472076
5,38,1.0008888781708685,-0.008848762897877813,0.027871675325879235