TITLE="CMs_NON_Orthogonal Re = 10000.0"
VARIABLES = X,Y,Rho,U,V
ZONE
I = 101	J = 101
F=POINT
1,1,1.0009318842768082,1.148737844894139e-6,-2.6960054200823526e-6
1,2,1.0009329278909878,4.607734933086196e-6,-1.7462574526985167e-5
1,3,1.0009328529363914,4.742781298358065e-6,-3.657980069165281e-5
1,4,1.0009330983608993,5.182809039436347e-6,-5.866804797596972e-5
1,5,1.0009333587794125,5.384248771598785e-6,-8.518052165988652e-5
1,6,1.000933622290824,4.932615878505256e-6,-0.00011717130365783513
1,7,1.0009339121572107,3.357487164934619e-6,-0.00015545951517089725
1,8,1.0009342418199267,1.0300016308041365e-8,-0.0002011544705873889
1,9,1.0009346047108179,-6.034139167148353e-6,-0.0002553166865380571
1,10,1.0009349854726306,-1.600464927288284e-5,-0.0003191478044336465
1,11,1.000935358780791,-3.143106679725397e-5,-0.0003935145270622995
1,12,1.0009356991476654,-5.412513570599312e-5,-0.00047904009512332536
1,13,1.0009359901476083,-8.613899092353388e-5,-0.0005755962917494269
1,14,1.0009362391542755,-0.0001296865823738484,-0.0006823421667713807
1,15,1.0009364933630565,-0.00018703679543924295,-0.0007972630741574975
1,16,1.0009368571484578,-0.0002603588098512986,-0.0009172541094165511
1,17,1.0009375026225695,-0.0003515601705732288,-0.00103783471117841
1,18,1.000938670832033,-0.0004621160159877716,-0.0011533868897441863
1,19,1.0009406567769148,-0.0005929380428385501,-0.0012571087689396126
1,20,1.0009437817047544,-0.0007442675162711469,-0.0013413887332844206
1,21,1.000948352257876,-0.0009156209844182472,-0.001397920452439035
1,22,1.0009546144563637,-0.0011057599871428009,-0.0014181233551304458
1,23,1.00096270377367,-0.0013127057504961125,-0.0013933578486975684
1,24,1.0009725987256333,-0.0015337769540573784,-0.0013154030447058889
1,25,1.0009840787595317,-0.001765673153786862,-0.0011768260453291458
1,26,1.0009966935470374,-0.002004589251098949,-0.0009715903513724921
1,27,1.0010097468130779,-0.0022463765325318177,-0.000695578349768534
1,28,1.0010223063706793,-0.002486728820520397,-0.0003472205234412237
1,29,1.001033247514909,-0.0027213921071460602,7.20806162192193e-5
1,30,1.0010413342884033,-0.002946369982709137,0.0005576231429693223
1,31,1.0010453282048897,-0.0031581310781235534,0.0011014072343222233
1,32,1.0010441120651583,-0.003353809907240441,0.001692373510715013
1,33,1.0010368098800018,-0.0035313779668984667,0.0023170531522913877
1,34,1.0010228864852193,-0.003689705370016393,0.0029604602229008933
1,35,1.001002207791771,-0.0038284951584577967,0.003607123069801237
1,36,1.0009750542289886,-0.003948119913978351,0.004242009710262724
1,37,1.0009420850149042,-0.004049429245192642,0.004851298890882017
1,38,1.0009042662421153,-0.004133560425891167,0.005422914592667202
1,39,1.000862774721326,-0.004201782613626349,0.005946839091601315
1,40,1.0008188987640887,-0.004255372239364606,0.006415224268223354
1,41,1.000773944239924,-0.004295528852647847,0.006822324905415704
1,42,1.0007291612581708,-0.004323318120087123,0.007164341647331955
1,43,1.0006856869192808,-0.004339645765156587,0.007439157119992004
1,44,1.0006445137325386,-0.004345247039128373,0.007646098515795342
1,45,1.0006064684268843,-0.004340695517303534,0.007785630686032477
1,46,1.0005722124227174,-0.004326416733304491,0.007859167657139768
1,47,1.000542240926203,-0.004302712731032446,0.007868799528007788
1,48,1.0005169003902996,-0.004269784197659202,0.007817214421516451
1,49,1.0004963925362942,-0.004227759681726035,0.007707469585873394
1,50,1.0004807987231537,-0.004176717587719463,0.007543045217785894
1,51,1.0004700791491177,-0.004116715938860787,0.007327626755209253
1,52,1.000464100995401,-0.004047809317192298,0.007065302482823942
1,53,1.0004626279583408,-0.0039700799704625875,0.006760291146734431
1,54,1.0004653545671074,-0.00388364402001917,0.006417311339768081
1,55,1.0004718837931788,-0.003788689492394866,0.006041146420629937
1,56,1.0004817736404088,-0.003685459988051503,0.005637259816621227
1,57,1.0004945010897768,-0.0035743138596419427,0.005211013393942852
1,58,1.0005095291157673,-0.003455659547462936,0.004768703857889682
1,59,1.0005262540767939,-0.0033300692582316064,0.004316103979430257
1,60,1.0005441013810958,-0.0031981126128659914,0.003860309103784171
1,61,1.0005624512072635,-0.0030605973215352762,0.003406984842134377
1,62,1.0005807682277055,-0.002918198812170075,0.0029638442243871354
1,63,1.0005984979370126,-0.002771966379576131,0.0025354462013842116
1,64,1.0006152301828373,-0.002622575545663402,0.0021299061881822133
1,65,1.0006305587896822,-0.0024713104966910034,0.0017491860740121339
1,66,1.0006442683702703,-0.0023187364678580705,0.0014017685942548954
1,67,1.0006561545190953,-0.002166317461645608,0.0010853416603739479
1,68,1.0006662240271726,-0.0020144663378260817,0.0008089522706837186
1,69,1.0006744818142637,-0.0018646997984968063,0.0005648519309406
1,70,1.000681106156765,-0.001717375560999256,0.00036290707622863336
1,71,1.0006862413589817,-0.0015738270459491703,0.00019006486177534286
1,72,1.0006902007086431,-0.0014344014646543285,5.693545683930962e-5
1,73,1.000693202943061,-0.0013003161241616215,-5.354131987409502e-5
1,74,1.00069544674516,-0.0011719807405510137,-0.00012950210286859638
1,75,1.0006970848239307,-0.0010500804462440843,-0.00019020105398638454
1,76,1.0006984988320102,-0.0009347813767106367,-0.0002230993220088178
1,77,1.0006998999146144,-0.0008270110738280811,-0.0002486389912201238
1,78,1.0007011816506475,-0.0007273546164253081,-0.00025146244574548575
1,79,1.0007020572114296,-0.0006362798734569549,-0.0002503924128114861
1,80,1.0007026116528532,-0.0005531027341908335,-0.0002281210004062817
1,81,1.0007031567575193,-0.0004771157241842431,-0.00020603220350422306
1,82,1.0007040656725903,-0.00040703424338923083,-0.00016859650361670807
1,83,1.000705411787907,-0.00034221946441130075,-0.000140683946155504
1,84,1.0007071532525076,-0.0002817375938790668,-0.00010665604731159857
1,85,1.000709169639398,-0.00022601709944363466,-9.297280030188028e-5
1,86,1.00071123681437,-0.00017501876184147495,-8.192505960466829e-5
1,87,1.0007134007160445,-0.00013127665201554642,-0.00010047723699180157
1,88,1.0007151604243134,-9.639858102601924e-5,-0.0001234873049128229
1,89,1.0007165237614493,-7.22019160877411e-5,-0.0001715668210801907
1,90,1.0007174360078497,-6.216701570807734e-5,-0.00020459481731618077
1,91,1.0007175566173319,-6.067019680591987e-5,-0.0002308615430405614
1,92,1.0007266668552126,-8.761564773123077e-5,-0.0001871526658217599
1,93,1.0007299154573428,-0.0001450930675727053,-1.7059331900606798e-5
1,94,1.0007301523555447,-0.00022332096099009595,0.00037076203233389637
1,95,1.00072952633933,-0.0003098463981944972,0.0010187638092191802
1,96,1.0007876187951403,-0.00027848709162047673,0.0017794228487936121
1,97,1.0009731575484777,-0.001033347897223931,0.003447688033287671
1,98,1.0002882942705884,-0.0010948666605172493,0.006614504785895351
1,99,1.000748763924521,0.0005595755171733129,0.007653786000248107
1,100,1.0019268934757521,-0.007700637262476719,0.016413728640698864
1,101,0.996516207406013,0.026519957820965195,0.013989783961712425
2,1,1.0009306472567492,1.8475068071945448e-5,-5.588647960819353e-6
2,2,1.0009316708758815,3.9161709202755184e-5,-3.533745980395707e-5
2,3,1.000931100308075,4.705992138102246e-5,-8.304519579325848e-5
2,4,1.0009309249320517,5.6439896778433637e-5,-0.00014174582491143178
2,5,1.0009306885937732,6.939554945979758e-5,-0.00021303738031825574
2,6,1.0009303299825525,8.529680470563582e-5,-0.00030009244029726047
2,7,1.0009298932512585,0.0001047549613562444,-0.0004052659111227301
2,8,1.0009293587430956,0.00012877833747336568,-0.0005313682058604834
2,9,1.0009287032446106,0.00015837004817939362,-0.0006811922582813162
2,10,1.0009279019613175,0.0001944100454199556,-0.0008573663398895306
2,11,1.0009269441264712,0.00023755402539105342,-0.0010614691743517177
2,12,1.0009258440883817,0.000288166945232269,-0.0012936717846632586
2,13,1.000924660502966,0.00034627083126370276,-0.0015518436782536878
2,14,1.0009235118636264,0.0004115299587557349,-0.0018312950671853453
2,15,1.0009225934252521,0.0004832765590099172,-0.0021241897474209284
2,16,1.0009221812022455,0.0005605796033629428,-0.00241972434643667
2,17,1.0009226270122487,0.0006423418093075975,-0.002704148203281378
2,18,1.0009243327266435,0.0007273844947133669,-0.0029615039053729596
2,19,1.0009277157196137,0.0008144929578995429,-0.003174125073631822
2,20,1.0009331615024895,0.0009024125629814857,-0.0033235679512710514
2,21,1.0009409795190753,0.000989826026519674,-0.0033911296399061494
2,22,1.0009513572134696,0.0010753588251362993,-0.003358620717369598
2,23,1.000964323825841,0.0011576696882682257,-0.0032088025574321774
2,24,1.0009797141978698,0.0012356508189280615,-0.0029261795762994505
2,25,1.0009971412026029,0.001308722096889715,-0.002497696652619844
2,26,1.0010159691889253,0.001377143955268235,-0.0019138573384736538
2,27,1.0010353063215065,0.0014422489802690247,-0.0011697236002232991
2,28,1.00105401800366,0.0015064986446573915,-0.00026603536315739616
2,29,1.0010707804573935,0.0015733250872960866,0.00079013341284183
2,30,1.0010841638340096,0.0016467616986968574,0.0019850264470517042
2,31,1.001092751770895,0.0017309110960469082,0.0032986036580251255
2,32,1.0010952737075254,0.0018293393016629853,0.0047054464774685285
2,33,1.001090743921983,0.001944532518969993,0.006176338201551494
2,34,1.0010785668170574,0.0020775449017485788,0.007680082335985241
2,35,1.001058603323727,0.002227906492812349,0.009185451365285997
2,36,1.0010311709217004,0.002393771318060926,0.010662836968068006
2,37,1.0009970004792872,0.0025722338281911694,0.012085553513371762
2,38,1.0009571429203654,0.002759718438355844,0.013430640374678508
2,39,1.0009128681010324,0.002952363747614906,0.014679229505996932
2,40,1.0008655488624496,0.003146343325848103,0.015816558176824078
2,41,1.0008165721302107,0.0033381008246438255,0.01683166368254454
2,42,1.0007672540783195,0.003524491994640703,0.01771699615019301
2,43,1.0007187961067507,0.003702850826496599,0.018467814199834922
2,44,1.000672242073666,0.0038709903697979825,0.019081762437208105
2,45,1.000628475999434,0.004027166900961867,0.019558212966956128
2,46,1.0005882072837322,0.004170011546157792,0.01989803374686169
2,47,1.000551994319418,0.004298459829405482,0.02010295661558844
2,48,1.0005202390512582,0.004411666467031169,0.020175657146341994
2,49,1.0004932235313149,0.004508941877520409,0.02011910797253639
2,50,1.000471099602508,0.004589675255790166,0.019937055323110842
2,51,1.0004539330864226,0.004653298537473399,0.019633233073670674
2,52,1.0004416792346027,0.004699225110954468,0.019212345252717863
2,53,1.0004342364081038,0.004726852739512543,0.01867894014807001
2,54,1.0004314000984889,0.004735517456033244,0.018039074276248623
2,55,1.000432933783942,0.004724546706857176,0.017298545041032884
2,56,1.000438493686555,0.004693224752035678,0.016465510557617573
2,57,1.000447729814923,0.004640909398786396,0.015547630020182368
2,58,1.0004601709773575,0.004567000642789764,0.014556046428273423
2,59,1.0004753745157522,0.004471131474806476,0.013500775630818829
2,60,1.000492757218182,0.004353121711186591,0.012396636928708717
2,61,1.0005118172691039,0.004213238860099703,0.011255975579718589
2,62,1.000531892377126,0.004052104330653137,0.010097370525561504
2,63,1.0005524794623386,0.003870992785652219,0.008934510289648498
2,64,1.0005728977938528,0.003671652904047682,0.0077888346807597425
2,65,1.0005927269572736,0.0034565762530348676,0.006673177808207167
2,66,1.0006113532449945,0.0032287055318567432,0.005609874000171174
2,67,1.0006285317692123,0.002991619261248857,0.004607748317601676
2,68,1.0006438018665578,0.0027491341908892006,0.003687402986212383
2,69,1.0006571618405071,0.002505332597049644,0.00285047451602683
2,70,1.0006683578037605,0.0022641322835641135,0.0021134644537278784
2,71,1.0006776277424767,0.0020294100723165028,0.0014689605641390853
2,72,1.000684899534013,0.0018044672165697052,0.0009282307576933166
2,73,1.0006906323982006,0.0015918136571314184,0.0004749829329411321
2,74,1.0006948697709772,0.001393101580975316,0.00011628839808337488
2,75,1.0006980237471075,0.0012101124248087454,-0.00017020963798066856
2,76,1.0007001250010132,0.0010441080890084766,-0.00037988644386264696
2,77,1.0007018764370414,0.000894277821444266,-0.0005396623707476418
2,78,1.0007033788594755,0.0007577213372390201,-0.0006435912061953016
2,79,1.0007047417161488,0.0006325724851998137,-0.0007148733523761156
2,80,1.000705365623392,0.0005202196383677374,-0.0007414279537546982
2,81,1.0007054520901004,0.00042414878077449183,-0.0007491180867375636
2,82,1.0007050200044654,0.00034752717155821667,-0.0007340885619207653
2,83,1.000704701525559,0.00029186279789857495,-0.0007353553404829552
2,84,1.0007042104163069,0.00025682685812702244,-0.0007563871586101363
2,85,1.0007036979666502,0.00024207223350294468,-0.000840384225216683
2,86,1.0007026723880241,0.0002454978433990666,-0.0009871811507076661
2,87,1.0007008831154098,0.0002622247244916421,-0.0012320686915023708
2,88,1.0006985419674927,0.0002814482635883388,-0.001555545726728066
2,89,1.0006952293386764,0.0002879743528504233,-0.0019627693111339763
2,90,1.0006923629396973,0.00026803775671843574,-0.0024013379603572012
2,91,1.0006930188894216,0.00018656950654204326,-0.0028255191630345814
2,92,1.0006974765942107,1.0787686179929944e-5,-0.003125937663148103
2,93,1.0007225918101212,-0.00035012832256305803,-0.0031956730631457677
2,94,1.000731900866226,-0.0008205656246130303,-0.0028316440335539373
2,95,1.0007890475961059,-0.0011577655843838985,-0.00219256268298272
2,96,1.0008536107930723,-0.002281632825132734,-0.0004617337912676426
2,97,1.0007553859278802,-0.0037556510849909423,0.001960127587399551
2,98,1.0015099343288876,-0.004516376207915688,0.0039314373288986204
2,99,1.0004130778196703,-0.010789709890567094,0.016147497940423642
2,100,0.9996280064111238,-0.01221252847399035,0.021800183416334447
2,101,1.0037769854959528,0.051533553690817045,0.005625655284941448
3,1,1.0009306898977968,3.16187863991118e-5,-5.495463998646767e-6
3,2,1.0009322917789374,8.118339330175955e-5,-3.899719941923911e-5
3,3,1.0009318114646062,0.00010790971445728503,-0.00010176140729335177
3,4,1.00093135276052,0.00013105532784727132,-0.00018752284134522377
3,5,1.0009310366536412,0.00015871149831015732,-0.00029291301088451167
3,6,1.0009306662282802,0.00019086695217302203,-0.0004205067475763793
3,7,1.000930178241797,0.00022671059180314976,-0.0005739604296261406
3,8,1.0009295835148826,0.0002659264552589951,-0.0007564346092324012
3,9,1.0009288505174345,0.000307299377604852,-0.0009704908385603662
3,10,1.0009279584524402,0.000348192595416012,-0.001217630760231371
3,11,1.0009269086400296,0.0003844503113904642,-0.0014969719336740096
3,12,1.0009257357035992,0.0004104300934347697,-0.0018046664167203923
3,13,1.0009245236572926,0.0004192336168516637,-0.00213291790205186
3,14,1.0009234187211362,0.0004031287334630579,-0.0024700115681054098
3,15,1.0009226362074901,0.00035416909587122073,-0.002800255170703104
3,16,1.0009224560750736,0.0002649368151095944,-0.0031050089742443087
3,17,1.0009232053422052,0.00012925800224696462,-0.003363574314763398
3,18,1.0009252300132632,-5.7276788907247057e-5,-0.0035547684156111477
3,19,1.0009288605044593,-0.0002970854159529223,-0.0036578722979281214
3,20,1.0009343795724557,-0.0005906298017798402,-0.003653706390117657
3,21,1.0009419953041225,-0.0009365820568580034,-0.0035248319717234235
3,22,1.0009518222246303,-0.0013319465550185846,-0.0032558890585796104
3,23,1.0009638631673161,-0.0017720108823213894,-0.002833471531963878
3,24,1.000977986316716,-0.0022501057643698886,-0.0022466260406712323
3,25,1.0009938894540629,-0.0027572920961056947,-0.0014873612806700952
3,26,1.001011057420686,-0.0032821820814714544,-0.0005518828574310644
3,27,1.001028726345425,-0.0038110978241615626,0.0005583760316362584
3,28,1.0010458728410339,-0.004328665252421962,0.0018355439272813375
3,29,1.0010612424349412,-0.00481882303990563,0.003264908869529732
3,30,1.0010734262369165,-0.005266126133394246,0.004824923626889551
3,31,1.0010809894280115,-0.005657143489053902,0.006488367266343487
3,32,1.0010826301492262,-0.005981679883765054,0.008223923107752459
3,33,1.0010773413017011,-0.006233569420845311,0.009998500881777846
3,34,1.0010645319335525,-0.0064108893616265285,0.011779290205733838
3,35,1.0010440933068054,-0.006515609370574769,0.013535814799471496
3,36,1.001016390419027,-0.006552816456125552,0.015241137716473223
3,37,1.0009822031502191,-0.006529729164491902,0.01687277658294073
3,38,1.0009426204467273,-0.0064546949185318855,0.01841275428368507
3,39,1.0008989297787487,-0.006336321971291512,0.01984754827350193
3,40,1.000852499085258,-0.006182814438096409,0.021167443646456365
3,41,1.000804688210495,-0.006001535987300157,0.02236606209101348
3,42,1.0007567693434547,-0.005798769719267781,0.023439525683178343
3,43,1.0007098859484822,-0.0055796456311164675,0.024385961317766932
3,44,1.0006650173684446,-0.0053481754332536146,0.025204761593886026
3,45,1.0006229763841221,-0.005107371957655937,0.02589622838816532
3,46,1.0005844027483255,-0.004859398074132697,0.026461031664038584
3,47,1.0005497807158859,-0.004605748722259846,0.0269000049819448
3,48,1.0005194455027748,-0.004347416723957844,0.027213819334077422
3,49,1.0004936059011806,-0.004085074664001147,0.027402874947900696
3,50,1.0004723545760428,-0.0038192171405248276,0.02746720375418152
3,51,1.0004556873573143,-0.0035503242026700284,0.027406374865569558
3,52,1.0004435151864504,-0.003278968570697231,0.027219685442461894
3,53,1.0004356760737485,-0.0030059597681423213,0.02690597260636083
3,54,1.0004319510826791,-0.002732409888151777,0.026464231131588953
3,55,1.0004320663945039,-0.0024598554886796024,0.025893170665610185
3,56,1.0004357180034136,-0.0021902655774835448,0.025192502819422383
3,57,1.0004425603157057,-0.0019261257170997373,0.024361968831702354
3,58,1.000452244660621,-0.00167035690236751,0.023403662058584466
3,59,1.0004643883939242,-0.0014263340223820086,0.02232004692729823
3,60,1.0004786314735061,-0.0011976774660874875,0.021117814839730183
3,61,1.0004945781691954,-0.000988182159190287,0.019804105789961914
3,62,1.0005118748932686,-0.000801463941123378,0.018392527252436165
3,63,1.0005301192895735,-0.0006408125435447787,0.0168964137730837
3,64,1.0005489618404486,-0.0005087325247753376,0.01533777943382232
3,65,1.0005679866584285,-0.0004068097577342391,0.013736148619130221
3,66,1.000586838937187,-0.00033527343045586304,0.012121386747464864
3,67,1.0006050978569665,-0.00029300934924260055,0.01051663216625427
3,68,1.0006224157090795,-0.0002773307067030916,0.008956172129886628
3,69,1.000638417778637,-0.00028429360140070275,0.007461501355310996
3,70,1.0006528301020279,-0.0003087957055312758,0.0060654389877000305
3,71,1.0006654263872607,-0.0003450219221455311,0.004781337519514509
3,72,1.0006760653075144,-0.0003868564691393433,0.0036344548378821682
3,73,1.000684732245729,-0.00042878394083783794,0.00262503438160167
3,74,1.000691525453997,-0.0004663734215635601,0.0017668537136715996
3,75,1.0006966641169308,-0.0004955865179892391,0.001046126807008714
3,76,1.0007002324272796,-0.0005125076047711183,0.0004666169308211143
3,77,1.0007025478405531,-0.0005160429385758951,3.13943948404914e-6
3,78,1.000704087052626,-0.0005104991210263742,-0.00034880034941903415
3,79,1.000705316590166,-0.0005017892383830789,-0.0006182703752544425
3,80,1.0007059824016729,-0.0004893985049315027,-0.0008042309067907082
3,81,1.0007056876516867,-0.0004635108387191893,-0.0009321043179196634
3,82,1.000704283179893,-0.0004097462909806834,-0.0010088930091989763
3,83,1.0007022117339934,-0.00031658730139008217,-0.0010823775648236733
3,84,1.0006998771710436,-0.00017965356247315515,-0.0011830073992073241
3,85,1.0006975164890584,-1.4289841999094622e-6,-0.0013704476605179425
3,86,1.0006949068263586,0.00020816838620987753,-0.0016690931849386364
3,87,1.0006920172164675,0.0004251576399042843,-0.0021133923299474374
3,88,1.000687617221019,0.0006178601446608119,-0.0026812396521521172
3,89,1.0006835862822316,0.0007483605696265741,-0.003357087742224434
3,90,1.0006795132521629,0.0007661518296844564,-0.004046631390183534
3,91,1.0006771880848062,0.0006342927139781297,-0.004682698608340078
3,92,1.0006811554796589,0.0002519394389838001,-0.005113092578849875
3,93,1.00067458350257,-0.0003708223458112086,-0.005284644223016421
3,94,1.0007304171185691,-0.0011408300582618981,-0.0053151640764918795
3,95,1.000736914346331,-0.0024824793583131774,-0.004360604448169428
3,96,1.0006075669273424,-0.0036206429210161447,-0.0033315633139647765
3,97,1.0010598484155748,-0.00527253426185881,-0.002959020690705031
3,98,1.0006866905588692,-0.01237386232957289,0.0035611647247719017
3,99,0.9995259696000861,-0.016969265833745736,0.005931477491964941
3,100,1.0005861379836736,-0.002751982143443184,-0.0006270504585720994
3,101,1.0005047265637166,0.0551841486654567,-0.0019279597578543794
4,1,1.0009303298415426,5.3115924775031016e-5,-6.7701464945142135e-6
4,2,1.0009321468695473,0.00013772569853303906,-4.632712897634216e-5
4,3,1.0009318924372046,0.00019578774422045715,-0.00012160581061762703
4,4,1.0009314583969005,0.00024544129026141543,-0.00022822745028445388
4,5,1.000930988475643,0.00029845143549897844,-0.0003611172597023292
4,6,1.0009306406593708,0.0003604639826616356,-0.0005183657194660426
4,7,1.0009302567199396,0.0004324580069662511,-0.0007022208155239661
4,8,1.0009297707415845,0.0005142724623334722,-0.0009151160288662297
4,9,1.0009292017104592,0.0006051066912269012,-0.001156959909998644
4,10,1.000928551872669,0.0007023399305154896,-0.0014252336813901823
4,11,1.0009278475015104,0.0008012959535485805,-0.0017137022292364047
4,12,1.0009271494295924,0.0008955594692257562,-0.0020120884568628947
4,13,1.0009265566546763,0.000977582938976351,-0.002305594630892196
4,14,1.0009262116629651,0.0010395722847545074,-0.0025758652083304836
4,15,1.0009262945925812,0.001074486725993629,-0.00280190767306608
4,16,1.000927009946841,0.0010769343891502408,-0.002962163781803595
4,17,1.0009285642184904,0.0010436974723212016,-0.0030359175169622143
4,18,1.000931143188228,0.0009737105826333323,-0.0030049546070528787
4,19,1.0009348925056927,0.0008675218184684466,-0.002853812185223612
4,20,1.0009399110220667,0.000726498103596771,-0.002569855049681224
4,21,1.000946254755332,0.0005521643775975785,-0.0021421869063213213
4,22,1.0009539474920957,0.0003460410940044166,-0.0015611258611951308
4,23,1.000962980409025,0.00011014485605153254,-0.0008176039134442456
4,24,1.0009732875540434,-0.00015196389579144815,9.598299346549677e-5
4,25,1.0009846920630796,-0.0004339748821644145,0.001184612713086434
4,26,1.0009968351098526,-0.000725942508065709,0.0024483796575328017
4,27,1.0010091112746264,-0.0010141157749541463,0.00388081118099169
4,28,1.0010206305386617,-0.0012816591755808178,0.005467241529465234
4,29,1.0010302401105506,-0.0015102345638853879,0.007184849194444217
4,30,1.0010366130316097,-0.0016821577182292797,0.009003466583373409
4,31,1.0010384093112792,-0.0017826578674869306,0.010888129437478035
4,32,1.0010344549692958,-0.0018016880167097222,0.012801714917323214
4,33,1.001023915547179,-0.0017349059173613207,0.0147082051662247
4,34,1.001006396488037,-0.001583691853214788,0.016574834492844408
4,35,1.000981988333351,-0.001354361821465775,0.018374046469398157
4,36,1.0009512196223262,-0.0010568648101599992,0.02008393061715502
4,37,1.0009149859110893,-0.0007033163912256546,0.021688586755789305
4,38,1.000874423908408,-0.0003066240728616461,0.02317727353789602
4,39,1.0008308156841257,0.00012061380241463164,0.024543979629512692
4,40,1.0007854681520165,0.0005668897506906148,0.025786134387658283
4,41,1.000739653463762,0.001022243328250708,0.026904105030413156
4,42,1.0006945287615197,0.001478461054776119,0.027899974995582923
4,43,1.0006511245987468,0.0019290701433259698,0.02877727757291686
4,44,1.0006103015602832,0.002369209554817995,0.02953998885940783
4,45,1.0005727729325606,0.002795415608614841,0.030192541373584788
4,46,1.0005390816491657,0.00320538332478524,0.03073900078053847
4,47,1.0005096392958464,0.0035977108480013016,0.031183300763580616
4,48,1.0004847092464897,0.00397166778017544,0.03152852318941657
4,49,1.0004644494055166,0.004326968183381911,0.031777282900201556
4,50,1.0004488942668277,0.004663583880248876,0.031931041873968086
4,51,1.0004379950411146,0.004981555930680022,0.03199059267510447
4,52,1.0004315993333788,0.005280852411244627,0.03195537356819652
4,53,1.0004294866355639,0.005561204276621683,0.031824024661699556
4,54,1.0004313484892742,0.0058219995107357935,0.03159372741461379
4,55,1.0004368197525397,0.006062129903109249,0.031260825809372686
4,56,1.0004454650437258,0.006279926596906439,0.030820299827154066
4,57,1.000456807030947,0.006473022364030207,0.030266440258417817
4,58,1.0004703267047936,0.006638361252523877,0.02959269002559785
4,59,1.0004854885830072,0.006772111821162027,0.02879230039081773
4,60,1.0005017616846106,0.006869816487710292,0.027858925035944258
4,61,1.0005186363487815,0.006926422301335408,0.026787002801101082
4,62,1.0005356679249937,0.006936649630834915,0.025573620847128553
4,63,1.0005524706579356,0.006895208123470309,0.024217990130878927
4,64,1.00056877742451,0.006797416760861002,0.022725140124421266
4,65,1.0005843881536634,0.006639597331932318,0.021103282635710114
4,66,1.0005992374143764,0.006419844504840909,0.01936983390375733
4,67,1.0006132779641341,0.006138426900056694,0.017544918998552685
4,68,1.000626560964524,0.005798415190244948,0.015660166896173996
4,69,1.000639064711842,0.005405767227651064,0.013746552829663833
4,70,1.00065082160866,0.004969453236882908,0.01184650105079164
4,71,1.0006617187393307,0.0045009502853076986,0.00999517565324458
4,72,1.0006716906554542,0.004013720257260307,0.00823688993662227
4,73,1.0006805298939625,0.003522022355472901,0.006600494078565322
4,74,1.0006881726102053,0.0030397610542921513,0.0051207247410110035
4,75,1.0006945205170859,0.002579620539829332,0.003809924121812898
4,76,1.0006995941014412,0.002153259547411176,0.002686130386202992
4,77,1.00070326022725,0.0017696897335239283,0.0017431390253904281
4,78,1.000705733426188,0.0014311136754905792,0.0009800190462828369
4,79,1.0007074951133825,0.001131908637914943,0.00037105429942464085
4,80,1.000708989686987,0.0008681640599969634,-9.472634777013607e-5
4,81,1.0007098793578182,0.0006494333530346491,-0.0004403170137830554
4,82,1.0007096492150924,0.0005003762281228168,-0.000674968813497447
4,83,1.0007082936126008,0.00044814726144570344,-0.0008391695971540809
4,84,1.0007064348521466,0.0005068734483648503,-0.0009775893190589891
4,85,1.0007048871533177,0.0006724683971030035,-0.0011612610899136748
4,86,1.0007041113618844,0.000917087317324064,-0.0014355882973980652
4,87,1.000703133898108,0.0011894839727726143,-0.0018315530899840487
4,88,1.0007026374673016,0.0014222928915955666,-0.0023265685810195777
4,89,1.0007007819285727,0.0015359136695626524,-0.0028555626224973057
4,90,1.0007005995960285,0.0014604459671760924,-0.003333136644434289
4,91,1.0007000256492586,0.001098135322131124,-0.003611189201777829
4,92,1.0006916509243546,0.0004874292607146192,-0.003663679923716089
4,93,1.0007300714199967,-0.00033885942164914984,-0.0035977621378330865
4,94,1.00070555758729,-0.0018035745997602168,-0.0028194256261951612
4,95,1.0006665026845658,-0.003061606523854395,-0.002378805393680712
4,96,1.0009895194269491,-0.00433589010976196,-0.002043586384494592
4,97,1.0005891925604335,-0.009670959260492402,0.002548138414487809
4,98,1.0000642275797191,-0.014234947647164554,0.0030594308711758035
4,99,1.0008977883373065,-0.010625634728602791,-0.002075161363907851
4,100,1.0012840366032771,-0.0015266980663726517,-0.0024804280005661463
4,101,0.9997874910902671,0.052079103483050664,-0.0005519441952867773
5,1,1.000930051470176,7.19705062375061e-5,-7.719730203606331e-6
5,2,1.0009320577125684,0.0001973465771718441,-5.3211056415593906e-5
5,3,1.0009317737040566,0.00029023117678875254,-0.00013952677928167704
5,4,1.0009314696453175,0.0003686636968040321,-0.0002598242610610412
5,5,1.000931035334045,0.00044451521720705696,-0.0004087248913795441
5,6,1.0009306012066654,0.0005258306938307181,-0.0005821045581712104
5,7,1.0009302555054589,0.000615612182491369,-0.0007775409680737842
5,8,1.0009298556471686,0.0007109624774306995,-0.000994367037488065
5,9,1.0009293446977043,0.0008057644014963189,-0.0012290581814262676
5,10,1.0009287444081572,0.0008913218179567864,-0.001473958693223972
5,11,1.0009280622429706,0.00095595884147838,-0.001716990378277834
5,12,1.0009273245474184,0.0009858007318290943,-0.0019423794224877702
5,13,1.0009265901723987,0.0009663047460774328,-0.0021309513501309844
5,14,1.0009259553691208,0.000884026800642756,-0.002262239412880478
5,15,1.0009255572606863,0.0007282748697174804,-0.002315998698346485
5,16,1.0009255692469006,0.0004922033785221172,-0.0022745592939208293
5,17,1.0009261888631527,0.00017302196085624142,-0.0021234605442181755
5,18,1.0009276283929407,-0.00022872334921521313,-0.001851873392855677
5,19,1.000930111908474,-0.0007104557854528353,-0.0014509436583655833
5,20,1.0009338871491178,-0.0012688126352518121,-0.0009123947941850281
5,21,1.000939238833544,-0.0019001593558650716,-0.00022640387766728178
5,22,1.000946484505546,-0.00259997933321496,0.0006185354702148932
5,23,1.0009559254978726,-0.0033612643190525163,0.001635010654233153
5,24,1.0009677449312504,-0.004172514277991556,0.0028335811912007665
5,25,1.000981874160909,-0.005016202531677129,0.004219638218241612
5,26,1.0009978580705028,-0.005868412535928828,0.005789404942481935
5,27,1.0010147730038739,-0.006700010745310606,0.007528000377948414
5,28,1.0010312237890715,-0.007479275105423949,0.009408478085868241
5,29,1.001045470298637,-0.008175492632950858,0.011394090138446675
5,30,1.0010556365800205,-0.00876266924153741,0.013441373005234077
5,31,1.001059989772993,-0.009222461336145404,0.015505207744310249
5,32,1.0010571634389953,-0.009545682240745215,0.017542595725340133
5,33,1.001046339000276,-0.009732250259570124,0.0195165749100688
5,34,1.0010272789023578,-0.009789837494775869,0.021397510097083464
5,35,1.001000321866739,-0.009731769672043545,0.023164288930942058
5,36,1.0009662493204952,-0.00957470110602885,0.02480313092131124
5,37,1.0009261955733408,-0.009336513665222142,0.026307168496093252