TITLE="CMs_NON_Orthogonal Re = 10000.0"
VARIABLES = X,Y,Rho,U,V
ZONE
I = 101	J = 101
F=POINT
1,1,1.0006642575612161,-5.605583850545571e-6,4.748491775631127e-6
1,2,1.0006610991087341,-1.5069587872110208e-5,3.3289210099096153e-5
1,3,1.0006604459715256,-1.842362705471436e-5,8.121617217917363e-5
1,4,1.000661470410358,-1.683229399538898e-5,0.00012922276451536938
1,5,1.0006630007764723,-1.3588487151872492e-5,0.00016807927581053282
1,6,1.0006650037103888,-9.054808367883851e-6,0.00019174970126073222
1,7,1.0006675383743517,-3.401957335604164e-6,0.00019535770266156956
1,8,1.0006704911965012,2.635129871917966e-6,0.00017358953982404235
1,9,1.0006737114569841,8.457964218874651e-6,0.00012357689382515378
1,10,1.0006770765851105,1.395433452562052e-5,4.085524517111988e-5
1,11,1.0006803756936433,1.9040187191965027e-5,-7.967073218125795e-5
1,12,1.0006830640677962,2.2558334009267865e-5,-0.0002455579327663299
1,13,1.0006841788897458,2.1507847599475096e-5,-0.00045993742530805017
1,14,1.0006826972458147,1.1599054145067284e-5,-0.0007180887337942478
1,15,1.0006782282332125,-1.1186637899101731e-5,-0.00100088418901275
1,16,1.0006716514831044,-4.878424700128824e-5,-0.0012775079651883162
1,17,1.0006651874884533,-0.0001000187922702014,-0.0015093512224798556
1,18,1.0006616004507034,-0.00016047618239983298,-0.0016615467887746299
1,19,1.000662789212245,-0.0002238327197771309,-0.0017109916781564744
1,20,1.000668773949684,-0.000283870753399621,-0.0016524455062443988
1,21,1.000677824254816,-0.0003363201853705667,-0.0014958269905063955
1,22,1.0006874725385293,-0.0003793905109770774,-0.0012614367150831423
1,23,1.0006954733406999,-0.00041323674994611046,-0.0009727665438584568
1,24,1.0007002213082503,-0.00043906347414923865,-0.0006528281574296231
1,25,1.0007007398937764,-0.0004585249407506819,-0.0003208595121391845
1,26,1.0006965746159555,-0.00047339104640573834,8.13382637852493e-6
1,27,1.0006877095387856,-0.0004853313388623129,0.0003244074687731093
1,28,1.0006744855074914,-0.0004957101419365369,0.0006223993861078596
1,29,1.0006574715954863,-0.0005054887368308742,0.0009004611014814324
1,30,1.0006373382077283,-0.0005152547162965616,0.0011591781720250156
1,31,1.0006147819767743,-0.0005253497570650882,0.0014011602117730124
1,32,1.000590508611533,-0.0005359634698227044,0.0016299566131941022
1,33,1.0005652304133257,-0.0005471791928785901,0.0018503365136623329
1,34,1.0005396554644723,-0.0005589588991124233,0.0020674899141753236
1,35,1.0005144638284493,-0.0005711301577456118,0.002287251561932667
1,36,1.0004902741786053,-0.0005833574080793921,0.002515177117389395
1,37,1.0004676021634669,-0.000595141772886678,0.0027565144561200634
1,38,1.0004468165191243,-0.0006058274441465255,0.0030151286698791796
1,39,1.0004281041921115,-0.0006146519347427832,0.0032933638115741205
1,40,1.0004114545461995,-0.0006208075769716359,0.003591097910105605
1,41,1.000396672669075,-0.0006235344217134645,0.0039058737044049834
1,42,1.0003834215977427,-0.0006222037888543774,0.00423244980933862
1,43,1.0003712905928768,-0.0006164018935936361,0.004563483920236535
1,44,1.0003598731969117,-0.0006059765025537881,0.004889676810132754
1,45,1.0003488429637577,-0.0005910588736054722,0.0052009116321033695
1,46,1.0003380072500907,-0.0005720407115617414,0.005486689913032119
1,47,1.000327335127123,-0.0005495287687729876,0.00573732158779084
1,48,1.0003169517352335,-0.000524273223011551,0.005944206356421926
1,49,1.0003071106816774,-0.0004970954666260677,0.006100708415233405
1,50,1.000298147210887,-0.000468816027634493,0.006202029658672483
1,51,1.0002904297769246,-0.00044019974134953136,0.006245678683731666
1,52,1.0002843120406648,-0.0004119150576691325,0.006230966266376334
1,53,1.000280097883662,-0.00038451309277805305,0.006159205322429857
1,54,1.0002780158928024,-0.0003584202308191114,0.006033003951041741
1,55,1.0002782080012511,-0.0003339432982872356,0.005856385449580318
1,56,1.000280726902493,-0.00031128135012615355,0.005634043686952698
1,57,1.0002855405010223,-0.00029054316254486525,0.0053715093704602476
1,58,1.000292542501128,-0.0002717634482407195,0.0050744646182756875
1,59,1.0003015609290982,-0.0002549243161481614,0.004748996108683911
1,60,1.000312373676172,-0.00023996486511769732,0.004401015459140137
1,61,1.000324713314833,-0.00022680598442682641,0.00403656917286974
1,62,1.0003382847560132,-0.00021534338191411508,0.0036614005198726094
1,63,1.000352763360622,-0.00020548224998782354,0.0032812230797972406
1,64,1.0003678168964247,-0.0001970990621492082,0.002901486760591946
1,65,1.000383097760685,-0.0001901035656595505,0.0025274406847342213
1,66,1.000398271954392,-0.00018434839081495473,0.0021642475821428064
1,67,1.000413005852819,-0.00017974743690804792,0.0018165432678707433
1,68,1.0004270091831131,-0.00017608777508226804,0.0014891820292817482
1,69,1.000440024259893,-0.0001732733963426004,0.0011858057995011572
1,70,1.0004518590538398,-0.00017104355656320523,0.0009108257420074348
1,71,1.0004623511701334,-0.00016923830442959923,0.000666383772216731
1,72,1.0004715009660738,-0.00016742302805801073,0.0004558868263207117
1,73,1.0004794263261623,-0.00016553020407897407,0.0002791561032181855
1,74,1.000486173534371,-0.0001633757413089475,0.0001386034405361591
1,75,1.0004917638044508,-0.00016057937941700643,3.202916605887497e-5
1,76,1.0004966527096715,-0.00015637972824155406,-4.0669202519357126e-5
1,77,1.0005014965335763,-0.00015075277135048154,-8.570049585861813e-5
1,78,1.00050651851888,-0.00014425083133576199,-0.00010418963624321038
1,79,1.0005114345378583,-0.00013765334300043646,-0.00010074477545175269
1,80,1.00051611428848,-0.0001310679752663269,-7.338084228281202e-5
1,81,1.0005207891580463,-0.0001243348520832409,-2.6415094175283698e-5
1,82,1.0005258196275228,-0.00011699586787625755,4.101340223288214e-5
1,83,1.000531306851891,-0.00010873496279532644,0.00012196192528623586
1,84,1.0005371206233238,-9.878546774457545e-5,0.00021535099824389423
1,85,1.000543025116034,-8.714848594216796e-5,0.0003110938207755151
1,86,1.0005486197768128,-7.321085402799956e-5,0.0004065305183654388
1,87,1.0005539365268319,-5.7913110448150774e-5,0.0004887469536724865
1,88,1.0005583416996744,-4.281921056899827e-5,0.0005572892958021294
1,89,1.0005613302536809,-2.904598385338555e-5,0.0006029761301435583
1,90,1.0005631283451115,-2.0979818919799994e-5,0.0006357896937451425
1,91,1.0005620014158243,-1.3691197201390986e-5,0.0006537039000449994
1,92,1.0005674851452615,-2.9598193721093512e-5,0.0006914531815133754
1,93,1.0005627475626946,-7.72250122870891e-5,0.0008193506867684199
1,94,1.0005498708859693,-0.00013962038325837628,0.0011171843839239862
1,95,1.0005444074623104,-0.00022658632111122553,0.0016444088231150247
1,96,1.000582878737326,-0.0001841888338813102,0.0022646867457781325
1,97,1.0007576697020477,-0.000926915334222464,0.003754195581464831
1,98,1.000095980182604,-0.001018005444889582,0.006733832435359128
1,99,1.0005214244469343,0.0006292874778633787,0.0076414052550801284
1,100,1.0017102675072431,-0.00770282378843649,0.016362280027985558
1,101,0.9963420439955715,0.026519407205620345,0.013994029116430344
2,1,1.0006676173697742,-3.10504788550253e-5,1.2823109789418109e-5
2,2,1.0006647859973419,-9.015901465498452e-5,8.665697760316162e-5
2,3,1.0006651575928787,-0.0001163268893383925,0.0002239077805886404
2,4,1.0006662810380516,-0.0001034641618549118,0.00037166870941948547
2,5,1.0006666061581797,-7.341199413636608e-5,0.0004924384073600172
2,6,1.0006665890808346,-3.0771807438496354e-5,0.0005673331014106202
2,7,1.00066665278522,2.489418657862381e-5,0.0005812607520626131
2,8,1.000666845560438,9.151806848065093e-5,0.0005183001485862256
2,9,1.0006670009337055,0.00016815981830057522,0.00036591730399545907
2,10,1.000666804768577,0.00025801762235321826,0.00010973265920561507
2,11,1.000665788885786,0.00036554089685819684,-0.00026667561683550034
2,12,1.0006632618013946,0.0004884894375879391,-0.0007792421798570122
2,13,1.000658507527491,0.0006111247634172074,-0.0014261241014308943
2,14,1.0006514505536466,0.0007051048795677134,-0.002173260979721894
2,15,1.0006434638421609,0.0007388759594304898,-0.0029458053209375753
2,16,1.0006374633608992,0.0006909769129567659,-0.0036419296375666244
2,17,1.000636880042653,0.000560871039749924,-0.004157221593664757
2,18,1.0006438752722762,0.0003709962025321611,-0.004415951873535904
2,19,1.0006580894369428,0.00015796945374120782,-0.004387444419273662
2,20,1.0006768523279561,-4.172625242708657e-5,-0.0040876608068864465
2,21,1.000696562319595,-0.00020266563518259333,-0.003563857180504144
2,22,1.00071400307537,-0.00031344924464126264,-0.0028784383723560393
2,23,1.0007269342534972,-0.0003737172834480793,-0.002093839353981662
2,24,1.0007340694559543,-0.00038976543619309416,-0.0012653266438986276
2,25,1.0007349111165416,-0.0003712537316185229,-0.0004356233399049966
2,26,1.0007295891964785,-0.00032903603759400197,0.00036548200333479873
2,27,1.0007187114631215,-0.0002734273812026937,0.0011214096229221614
2,28,1.000703137193246,-0.00021290317335973351,0.0018254897950339942
2,29,1.000683793397711,-0.00015359613412192958,0.0024789009521502523
2,30,1.0006615594474766,-9.964578673875548e-5,0.003087190960551022
2,31,1.0006372735202256,-5.3916901709193786e-5,0.00365937660101959
2,32,1.000611740076641,-1.8578158579546813e-5,0.004206153147372558
2,33,1.0005857570172416,4.667179323065888e-6,0.004740102447919739
2,34,1.000560088712147,1.4623187773537683e-5,0.0052744431412923
2,35,1.0005354529249963,1.0804863002568822e-5,0.005823106271332289
2,36,1.0005124573558355,-6.3027942483467985e-6,0.006399128068314843
2,37,1.0004915625634794,-3.501550171634203e-5,0.0070141716487844
2,38,1.0004730117896565,-7.234902656720636e-5,0.007676589917311227
2,39,1.0004568142325736,-0.00011410921988580466,0.008390827710834534
2,40,1.0004427201455397,-0.00015520293863376613,0.009155860024041956
2,41,1.0004302719826448,-0.00019013615679128602,0.009965299489913806
2,42,1.0004188528486657,-0.00021362457882276843,0.010806935328333801
2,43,1.0004078027805403,-0.00022120225715662202,0.011664004455657316
2,44,1.0003965023533474,-0.0002097175437849487,0.012515881119427908
2,45,1.0003844888094606,-0.00017762889096679637,0.013340155293634028
2,46,1.0003714988465404,-0.00012506601591491333,0.01411378100434122
2,47,1.0003575198509196,-5.36716928602247e-5,0.014815117996173697
2,48,1.0003427542713923,3.3717052850108454e-5,0.015424715891233329
2,49,1.0003276032007702,0.00013347212583773055,0.01592668191920973
2,50,1.000312579283879,0.0002415850849632226,0.0163087292208946
2,51,1.0002982681363708,0.0003540294973100685,0.016562769963170944
2,52,1.0002852385219478,0.00046703844967428167,0.01668435870362687
2,53,1.000274023211106,0.0005772909794600234,0.016672767645966455
2,54,1.0002650531508297,0.0006820077655394352,0.016530162672435247
2,55,1.0002586706487875,0.0007789810851095437,0.016261456345086307
2,56,1.0002550868268334,0.0008665461009763669,0.015873508916823726
2,57,1.000254420486756,0.0009435282048148934,0.015374926107097163
2,58,1.0002566662192673,0.0010091591061022521,0.014775466654626576
2,59,1.000261748926707,0.0010630016601465909,0.014085815664462037
2,60,1.000269490219046,0.0011048547248131235,0.013317313884219556
2,61,1.0002796731609747,0.0011346900571021,0.012481644748635964
2,62,1.0002919982369511,0.0011525681788190746,0.011590986551725743
2,63,1.0003061582882136,0.0011586089964030965,0.010657483223109963
2,64,1.00032177824667,0.0011529368299331888,0.009693924634959798
2,65,1.0003385046717241,0.0011356958630647307,0.008712795113970731
2,66,1.0003559241265068,0.0011070296848355267,0.0077275931828852265
2,67,1.0003736752438523,0.0010671686012640362,0.006751162890245878
2,68,1.00039134321567,0.0010164660172971255,0.005797738916110289
2,69,1.0004085983059259,0.0009554557657740606,0.004880215280622599
2,70,1.000425071938656,0.00088489917883115,0.004013050062435654
2,71,1.0004405217056667,0.0008060542397050932,0.003208084832277648
2,72,1.0004546517626853,0.0007207418910697827,0.0024784246137648856
2,73,1.000467393455301,0.0006307744826417926,0.001832557838782811
2,74,1.0004787029501092,0.0005377781836377776,0.001279809164267907
2,75,1.0004885365358573,0.00044477828642877377,0.0008236113304361453
2,76,1.000496716998014,0.00035668122408154094,0.00046678324151910454
2,77,1.0005037041184237,0.0002768957858141715,0.00020173434889113185
2,78,1.0005101808648824,0.00020436854397075979,2.094732138104237e-5
2,79,1.0005165547473744,0.00013578732663433748,-8.652272329975487e-5
2,80,1.000522498164942,7.004020355979036e-5,-0.00012317639253329324
2,81,1.0005278994131808,9.334044641074504e-6,-9.658317728031046e-5
2,82,1.0005328203674586,-4.2695137599966655e-5,-1.3353009838383064e-5
2,83,1.0005376939386026,-8.209431676770566e-5,0.00010678672467442404
2,84,1.0005424371309406,-0.00010532383832167826,0.00024385246173400685
2,85,1.0005467790000653,-0.00010927945771708448,0.00036585226198103437
2,86,1.000550290096153,-9.200654141809704e-5,0.00044546130847425647
2,87,1.0005523700146446,-5.33413945814945e-5,0.00044707599049290684
2,88,1.0005530863514112,6.613519571794806e-8,0.0003476827241076019
2,89,1.0005512753301815,5.678183498105016e-5,0.0001315746040130594
2,90,1.0005472461797635,0.00011064762700950662,-0.00019990397826791597
2,91,1.0005435589944418,0.00012330367420735277,-0.0006136262413538654
2,92,1.0005382689549533,4.8857410657389885e-5,-0.0010281251233391164
2,93,1.0005489218785482,-0.00021853682719292578,-0.0013119255390206998
2,94,1.0005435999131773,-0.0006282977387451115,-0.0012287736258633246
2,95,1.0005801576726523,-0.000895785692980807,-0.0009183894222733805
2,96,1.0006347837839555,-0.001974914094509062,0.0004266229247125964
2,97,1.000545225947176,-0.003427745043424666,0.0024717793723612372
2,98,1.001275376215346,-0.004156368840339467,0.00400540241301187
2,99,1.0001881174325928,-0.010712646479299273,0.016037594220307014
2,100,0.9994472104339915,-0.012308225729865278,0.021780438042759854
2,101,1.003577427253836,0.05151766349125627,0.005636613703297175
3,1,1.000667822141564,-7.443287488672232e-5,1.4165119698370264e-5
3,2,1.0006640694743787,-0.00022279498042866616,0.00010200677294741664
3,3,1.000664393406817,-0.0003053749207839584,0.00028098370753019627
3,4,1.0006663035981247,-0.0002827349234026398,0.0004895713763861426
3,5,1.000666852942943,-0.00020624807910877307,0.0006646642703533015
3,6,1.0006664388747102,-9.792097971525064e-5,0.0007707950606573601
3,7,1.000666014009239,4.211328081106186e-5,0.0007857231897474257
3,8,1.0006657364127234,0.00021111592466951655,0.0006842738462782284
3,9,1.000665341756125,0.0004063147643128484,0.0004422487501513005
3,10,1.0006644835160547,0.0006312712601232209,3.46311112012469e-5
3,11,1.0006627804515038,0.0008874916346291542,-0.0005591907525991716
3,12,1.0006596730750694,0.0011541130070440262,-0.0013453729737233104
3,13,1.000654569149636,0.0013747602746442041,-0.002289322456623973
3,14,1.000647596651581,0.0014694572672738129,-0.0033005488951967205
3,15,1.0006404422938362,0.0013689087002757398,-0.004237688729188689
3,16,1.0006361928998753,0.0010501240523134122,-0.00494851371774783
3,17,1.0006378580361914,0.0005513583760530214,-0.005316163437555265
3,18,1.0006466253447872,-4.2634205179297616e-5,-0.0052935695136199406
3,19,1.0006612650362494,-0.0006351355545750205,-0.004902182336950218
3,20,1.0006790010344035,-0.0011498640574436878,-0.004211111742246766
3,21,1.0006967902136066,-0.0015452618356181804,-0.0033074492154838995
3,22,1.0007120729884493,-0.0018111805656497778,-0.002277955321228856
3,23,1.0007229606908767,-0.0019583472750791873,-0.001196571217192974
3,24,1.0007282761105702,-0.0020088412542434227,-0.00012075498709501895
3,25,1.0007275949825336,-0.001989484747732196,0.000911866629092508
3,26,1.0007211496069632,-0.0019269574028779946,0.0018809078879105671
3,27,1.0007095843057896,-0.0018440647685934164,0.0027808294590122335
3,28,1.0006936719095882,-0.0017577645527503969,0.0036149209826481176
3,29,1.0006741843176008,-0.0016792885136654371,0.004392586255423775
3,30,1.0006518552902712,-0.0016156446937781901,0.005125580299500933
3,31,1.000627421517932,-0.0015713176513916577,0.005827830319988776
3,32,1.0006016180981347,-0.001549404747622066,0.0065135910279020565
3,33,1.000575204220652,-0.001552032358103234,0.007198137313057785
3,34,1.0005489285205582,-0.0015802227664841505,0.00789623336835765
3,35,1.0005235244903559,-0.0016334551246561721,0.00862253786773795
3,36,1.000499636378471,-0.0017091600156100852,0.00938963847774345
3,37,1.0004777895185821,-0.0018023636906763086,0.010207920324263197
3,38,1.0004583048373266,-0.0019056509272596558,0.011083412738980745
3,39,1.000441287878723,-0.0020095420156984217,0.012017765302747514
3,40,1.0004265828026142,-0.0021032766999527705,0.013006723514719307
3,41,1.0004138289035571,-0.002175899492223407,0.014041002914572607
3,42,1.0004024856631657,-0.002217453957632204,0.015105927541799844
3,43,1.000391958212934,-0.002220069297097741,0.016183360254446902
3,44,1.000381657875289,-0.002178739049356713,0.017252216144895534
3,45,1.000371132413715,-0.0020916799468774037,0.01829082129820667
3,46,1.0003600865329,-0.0019602449124135565,0.019277471902503902
3,47,1.000348452960942,-0.0017884721987054617,0.020192420094827603
3,48,1.0003363374993106,-0.0015823930571583443,0.021017847892929695
3,49,1.0003240300551461,-0.0013492580363244444,0.02173913901779465
3,50,1.0003119029263015,-0.0010967979462313422,0.02234420266484059
3,51,1.000300405517899,-0.0008326206913801497,0.02282419786785215
3,52,1.0002899620556787,-0.0005637679585525295,0.02317249978596226
3,53,1.0002809854454087,-0.000296451169298885,0.023385204705185812
3,54,1.0002737972414473,-3.592165749302171e-5,0.023460037604012877
3,55,1.0002686676239527,0.0002135363973290411,0.0233968524323585
3,56,1.0002657562455557,0.00044855351634316633,0.023196632339084197
3,57,1.0002651685469224,0.0006665608729362742,0.02286203750397845
3,58,1.0002669082341324,0.0008656731129862999,0.02239653904104681
3,59,1.0002709384865445,0.0010445388374576883,0.021804976206508814
3,60,1.0002771398204537,0.0012022177261051335,0.02109284675227707
3,61,1.0002853690342635,0.0013380301575191909,0.020266819085964012
3,62,1.0002954212057746,0.001451453131933941,0.019334245239208812
3,63,1.000307083140458,0.0015419896534355597,0.0183035845642177
3,64,1.0003201010085476,0.0016091135443618118,0.017184253108519412
3,65,1.000334224896478,0.001652181823734545,0.015986908907234986
3,66,1.0003491851792605,0.0016704683370252513,0.014723743550014984
3,67,1.0003647270315565,0.0016631898024110576,0.013408501226237914
3,68,1.0003805899124163,0.0016296708767778408,0.012057240622631476
3,69,1.0003965278055478,0.0015694362600522846,0.01068784971847981
3,70,1.0004123072065425,0.0014825381570558074,0.009321034623284007
3,71,1.000427716188384,0.0013698884563083673,0.007978956938158562
3,72,1.0004425395014702,0.0012336875573594626,0.00668624483182825
3,73,1.0004565384022388,0.0010771614669592199,0.005467451113614229
3,74,1.000469571850232,0.0009043065152876861,0.004347043858023571
3,75,1.000481593620998,0.0007211174421992909,0.0033461510175012013
3,76,1.000492355503144,0.0005379690652281784,0.0024835053937828627
3,77,1.000501491483394,0.000366706650727744,0.0017699298505522581
3,78,1.0005092076389122,0.0002124918853371771,0.0012057281543344054
3,79,1.0005162004320076,7.114777072010331e-5,0.0007817603374962146
3,80,1.0005227600725097,-6.217091396541956e-5,0.0004893755410446667
3,81,1.0005284556860783,-0.00018370246612323178,0.0003219025611911964
3,82,1.0005328667069848,-0.000280566208764401,0.00026780264321877195
3,83,1.0005360604819349,-0.00033614121085421845,0.00030046096842401286
3,84,1.0005384857013486,-0.00033583336509021485,0.00037500717152216925
3,85,1.000540287401878,-0.00027136991222393244,0.00043443371677214594
3,86,1.0005412656549746,-0.00013836351696618754,0.00041633271898076587
3,87,1.0005414604647571,5.615863622475936e-5,0.00026203520081966524
3,88,1.0005393178117825,0.0002908739740063018,-6.981965521998827e-5
3,89,1.0005358963157938,0.000535546649986967,-0.0006043195134525347
3,90,1.0005303870472382,0.0007355964079232606,-0.0013068833000317486
3,91,1.0005225113035596,0.0008303904341744479,-0.0021148029162075016
3,92,1.0005174459751087,0.0006678079955041948,-0.002872929008523158
3,93,1.000500193074892,0.00018949488894072527,-0.0034275829779985287
3,94,1.000539646984648,-0.0004780373717236735,-0.0038756286975710577
3,95,1.0005324111507548,-0.0017515418811336414,-0.003304610696466661
3,96,1.0004117988653438,-0.0028373890974135252,-0.0026410886706768767
3,97,1.0008478516888082,-0.0043651460051929835,-0.0027859404069193834
3,98,1.0004800341227034,-0.011753674561037396,0.003470236902239086
3,99,0.999371977906477,-0.01692658805955681,0.005904131214452562
3,100,1.0003807668659115,-0.0028432977409282977,-0.0006722338605450399
3,101,1.0002876603580995,0.055165982919910685,-0.0019506082340009845
4,1,1.0006663040553414,-0.00011107556850967668,1.1928621725669035e-5
4,2,1.000662464617772,-0.0003508457436621403,8.621888280580263e-5
4,3,1.000662057543571,-0.0005027933919166112,0.0002424858937392197
4,4,1.0006638856083487,-0.00047817456037318405,0.000432817441868303
4,5,1.0006649561964118,-0.0003448669991177528,0.0005975240507974418
4,6,1.0006648134166423,-0.00014842393626036626,0.0006914194856733328
4,7,1.0006644265046563,0.00010617644864026958,0.0006858455651597763
4,8,1.0006643108661322,0.00042025340923654937,0.0005511039599723325
4,9,1.0006642898227613,0.0007922373461978858,0.00025573999105358913
4,10,1.0006640503354647,0.0012218884298538224,-0.0002294921166350354
4,11,1.0006632644705722,0.0016960283780075738,-0.0009145465287664597
4,12,1.0006612984219394,0.002157659598947393,-0.0017737527585991555
4,13,1.0006572563364304,0.002493324848710472,-0.002722159804008686
4,14,1.0006508356385646,0.002567674424790739,-0.003618187111921629
4,15,1.0006434634365577,0.0022913401344198483,-0.0042941739503348396
4,16,1.0006382748315072,0.0016740746063866215,-0.004616155918869882
4,17,1.0006384493448206,0.000824964596077809,-0.0045255311504076344
4,18,1.0006453309541388,-9.744695360323864e-5,-0.004047528091910135
4,19,1.0006579873789359,-0.0009476938195686318,-0.003260253078777643
4,20,1.000674083112767,-0.0016313533278169837,-0.0022612038749437098
4,21,1.0006908411059499,-0.002109493889777858,-0.001141205166961937
4,22,1.000705577334782,-0.0023846848521363196,2.3417395479007466e-5
4,23,1.0007161097357489,-0.002485080227384674,0.0011766260130619296
4,24,1.000721121533211,-0.0024522568627747547,0.002282114517099971
4,25,1.0007202660384908,-0.0023315762251023804,0.0033239574387076156
4,26,1.0007138570550995,-0.0021642517445811314,0.004300114350378347
4,27,1.000702489384032,-0.0019824147231662353,0.005218235636105034
4,28,1.0006867784842493,-0.0018080703307024207,0.00608905299214124
4,29,1.0006673502413153,-0.00165495972101173,0.006925469107312988
4,30,1.0006448338369598,-0.0015313842189624272,0.007739838799349152
4,31,1.000619917482911,-0.0014425754309843521,0.008545274582274297
4,32,1.000593313187198,-0.0013920746603624276,0.009353850059232647
4,33,1.0005657956774339,-0.0013821481318734192,0.010177909230705507
4,34,1.0005381403924063,-0.0014134708850426724,0.011028070605823101
4,35,1.000511137756914,-0.0014844222240344238,0.011914056637086404
4,36,1.0004854910809389,-0.0015903411963195876,0.012842367245914954
4,37,1.0004618058596446,-0.0017230739710645368,0.013816850762813117
4,38,1.0004404689423505,-0.0018710328230512833,0.014836550498084088
4,39,1.0004216567664421,-0.002019884251915474,0.015896714042437744
4,40,1.0004052547872437,-0.0021538013587501445,0.01698748841990073
4,41,1.0003909446700596,-0.0022570994564852518,0.01809586963812049
4,42,1.0003782028589634,-0.0023159344935947384,0.019205383974418296
4,43,1.0003664680402624,-0.0023197603523808876,0.02029873619351463
4,44,1.0003551742089478,-0.0022622633233425745,0.021357860320004928
4,45,1.0003439204845286,-0.002141669563385777,0.022366473869223413
4,46,1.000332450777676,-0.001960422768913328,0.023309680604797555
4,47,1.0003207568724088,-0.0017244060313060428,0.024175820945786103
4,48,1.0003089729897567,-0.0014418921539410647,0.02495529080263982
4,49,1.0002974209249844,-0.001122466093007756,0.02564168895445673
4,50,1.0002864594830363,-0.0007760561699132703,0.02623008537651211
4,51,1.0002765232815654,-0.0004122033846668585,0.026717862408036027
4,52,1.0002679766475095,-3.9565895704885314e-5,0.027102846047949308
4,53,1.0002611797182979,0.00033432802374199795,0.02738421869618019
4,54,1.0002563656939953,0.0007031633067898621,0.027560777199537628
4,55,1.0002537358624841,0.0010617771076996668,0.027632084364264398
4,56,1.0002533549451023,0.0014060457391252624,0.027596907713608745
4,57,1.0002552620651564,0.001732714461522483,0.027454602532317723
4,58,1.000259373803089,0.002039243388959633,0.027203662564766015
4,59,1.0002655989515967,0.002323627158202549,0.026843255905427927
4,60,1.000273743666241,0.0025842528688454123,0.026371794902212017
4,61,1.0002836233330623,0.0028197231697908946,0.025788560291619533
4,62,1.0002949703955406,0.0030287230800795637,0.025092244134938595
4,63,1.0003075415949414,0.0032098363691675023,0.02428266674038043
4,64,1.0003210322859595,0.003361422149463643,0.023359332820141163
4,65,1.0003351787452635,0.0034814384556298094,0.022323345132903457
4,66,1.0003496871120843,0.0035673879643669613,0.021176072220380832
4,67,1.0003643255010577,0.0036162343690388623,0.019921431863097895
4,68,1.0003788664761075,0.0036245159498342243,0.018564759334306805
4,69,1.0003931657156102,0.0035884826776033767,0.017115576439267397
4,70,1.0004071222583797,0.0035045588140633923,0.01558640523920094
4,71,1.000420710787435,0.003369843090691708,0.013995951671599081
4,72,1.000433937546976,0.003182914078159916,0.012367271468262022
4,73,1.0004468250112626,0.002944426219436188,0.010730914152066192
4,74,1.0004594057177183,0.002657858155448662,0.00912060282198101
4,75,1.0004717229084692,0.0023301821149605767,0.007575440321735249
4,76,1.0004838075742595,0.0019740764815596853,0.006133560481460098
4,77,1.0004952462515582,0.0016086614083194405,0.004836210036721727
4,78,1.0005054704582845,0.0012530555834498545,0.003713417268046908
4,79,1.0005144477607897,0.0009148797648832648,0.002783392234633354
4,80,1.0005228387781162,0.0005912664410510847,0.002044981212465859
4,81,1.0005307516708846,0.0002848375392318196,0.0014999304557847747
4,82,1.0005375008928181,1.73396503125466e-5,0.001142666075497133
4,83,1.0005424211504872,-0.00017317916790910042,0.0009608600850674865
4,84,1.000545665313044,-0.00024886710012109566,0.00090625043024693
4,85,1.000547962239612,-0.000185773008128663,0.0009095608467858742
4,86,1.0005502708543803,2.1395530675163678e-5,0.0008782870680225281
4,87,1.0005521246901719,0.0003547265983143584,0.0007351605895656543
4,88,1.0005542699653183,0.0007673399310245011,0.00041301152865133285
4,89,1.0005544369229553,0.0011769711892327726,-7.998211111431487e-5
4,90,1.0005540641279345,0.001484574088388397,-0.0007101698227361012
4,91,1.0005503836288463,0.0015195836479854226,-0.0013027181844261421
4,92,1.0005352162778438,0.0012031041638366027,-0.0017433611755131818
4,93,1.0005619009115225,0.0005443735338263531,-0.0020736046934306464
4,94,1.0005259685698193,-0.00088223397534501,-0.0016082990568338017
4,95,1.0004885853479593,-0.002130868295206225,-0.0013755800246543178
4,96,1.0007916874667693,-0.003150767131230748,-0.0014300700588408492
4,97,1.00038732411045,-0.00855281516807511,0.002935754413781076
4,98,0.9999228466889164,-0.01364841196757267,0.0033582272022812253
4,99,1.0007117296925845,-0.010452274144421386,-0.0021241620369767474
4,100,1.0010647584182484,-0.0016727110596926997,-0.0026390956814148644
4,101,0.9996103789572628,0.05198028842387277,-0.0005752873351095627
5,1,1.0006642471595937,-0.00014333763486604269,8.40348456241537e-6
5,2,1.0006612319819128,-0.0004535106440013548,5.978312063123154e-5
5,3,1.0006606043018897,-0.0006599439208284878,0.0001662730715782703
5,4,1.0006618425771125,-0.0006377848303818871,0.0002900793921483684
5,5,1.0006628117466236,-0.00046162663703558214,0.0003934117370253553
5,6,1.0006631119100717,-0.00018821151752468742,0.00044267956397422547
5,7,1.0006631223348994,0.000171667328356865,0.00040685773178196434
5,8,1.0006634036923745,0.0006208906365432349,0.00025311973600700025
5,9,1.000664143041464,0.0011566786483019921,-4.8165128582811896e-5
5,10,1.0006650270607669,0.0017622873536466631,-0.0005176229588344512
5,11,1.0006653031200712,0.0023868245793660006,-0.0011411552698855198
5,12,1.0006635775156119,0.0029160604446501074,-0.0018542843362340574
5,13,1.00065818278635,0.0031770613197086364,-0.002535112305974838
5,14,1.0006486547139077,0.0030058763910939625,-0.0030344939318599586
5,15,1.0006372695751629,0.002341628910598694,-0.003222977960464179
5,16,1.0006285503906538,0.0012719519422333034,-0.003041102153452266
5,17,1.0006266624450701,-6.485679188845773e-6,-0.00250780509498366
5,18,1.0006331725565822,-0.001276667816225139,-0.0016982342190505282
5,19,1.0006468784160356,-0.0023743047252177715,-0.000703354566574591
5,20,1.000664855111564,-0.0032123423187016276,0.000391819708971284
5,21,1.0006835289003142,-0.00376947528308413,0.001520167112785975
5,22,1.0006995695346774,-0.004069074110779706,0.002632559696222361
5,23,1.0007106996832547,-0.0041612615156187025,0.0037023465469375786
5,24,1.000715954346346,-0.004107763373296706,0.00472165050436562
5,25,1.000715361229837,-0.003968428896002116,0.005697996679583317
5,26,1.0007093224121986,-0.0037918560449598155,0.006643991377716539
5,27,1.0006983215967082,-0.0036122025501845816,0.007573779738195419
5,28,1.000682817082264,-0.003450976331446393,0.008498280968034035
5,29,1.000663342899773,-0.003320826697893802,0.00942732283721118
5,30,1.0006404782507592,-0.003229071344603646,0.010368094290860575
5,31,1.000614924356718,-0.0031800772133810983,0.01132787891381806
5,32,1.0005874305276403,-0.0031764055172951236,0.012312147417267154
5,33,1.0005588509240155,-0.0032189367413301547,0.013326417032726499
5,34,1.00053003077239,-0.003306309632357743,0.014373684343008817
5,35,1.0005018393506846,-0.0034340891928378186,0.015455703238176754
5,36,1.0004750175603279,-0.00359405949570966,0.016570325144516146
5,37,1.000450196648319,-0.003773994867133786,0.017712913795130573