TITLE="CMs_NON_Orthogonal Re = 10000.0"
VARIABLES = X,Y,Rho,U,V
ZONE
I = 101	J = 101
F=POINT
1,1,1.0009168032136881,9.350237160631852e-7,-2.676436628076701e-6
1,2,1.0009178400553362,4.3617732949153845e-6,-1.736031962524466e-5
1,3,1.0009177645838274,4.441108748194888e-6,-3.635108122157623e-5
1,4,1.0009180085632214,4.7692935742903875e-6,-5.8293640848868085e-5
1,5,1.000918267301455,4.782330544672761e-6,-8.463453038165326e-5
1,6,1.0009185289967137,4.028772185827562e-6,-0.0001164284002649964
1,7,1.0009188167594743,1.9830784169944956e-6,-0.00015448666034893491
1,8,1.0009191440687906,-2.0781600187849733e-6,-0.0001999174338405499
1,9,1.0009195045585664,-9.175860403739715e-6,-0.0002537748335723809
1,10,1.0009198830801487,-2.065237683717687e-5,-0.000317261993346557
1,11,1.000920254421389,-3.816446586393784e-5,-0.00039124579297369807
1,12,1.0009205930525147,-6.365739206534693e-5,-0.0004763597869574074
1,13,1.0009208821901892,-9.931600612056794e-5,-0.0005724888018969487
1,14,1.000921128438054,-0.0001474767815121619,-0.0006788173212540691
1,15,1.000921377655772,-0.0002105108371893386,-0.0007933620418872812
1,16,1.0009217323078523,-0.00029065815407825445,-0.0009130621705767763
1,17,1.0009223620492638,-0.0003898564537140551,-0.001033487803147416
1,18,1.000923505170452,-0.0005095634084491882,-0.0011490816603171178
1,19,1.0009254539297356,-0.0006506230006174952,-0.0012531067453798107
1,20,1.0009285273533024,-0.0008131590311607743,-0.0013380211789002134
1,21,1.0009330309037199,-0.0009965253081134161,-0.0013955881328318327
1,22,1.0009392110952013,-0.0011992820815046397,-0.001417294533690912
1,23,1.0009472061141702,-0.0014192205049709976,-0.0013945612798869306
1,24,1.0009569999200187,-0.0016534117926177143,-0.001319215958770378
1,25,1.0009683804306777,-0.001898303980329455,-0.0011838558925461617
1,26,1.0009809089601895,-0.0021498497126774363,-0.000982448680847354
1,27,1.0009939037863163,-0.002403679964861914,-0.0007108494748919124
1,28,1.0010064494059785,-0.00265530014226328,-0.00036742500071144354
1,29,1.0010174384544042,-0.0029003067874047743,4.6520093505585716e-5
1,30,1.001025651186497,-0.0031345962287295786,0.0005264125272252229
1,31,1.0010298622507685,-0.003354571999377018,0.001064399649269347
1,32,1.0010289627426279,-0.0035573423269854372,0.0016495769054566834
1,33,1.0010220787005553,-0.003740887222605844,0.0022686191765978934
1,34,1.0010086702817633,-0.003904115479007814,0.002906664539650562
1,35,1.0009885925210664,-0.004046793130576685,0.0035483362640469094
1,36,1.0009621103446578,-0.004169372156630478,0.004178670969729211
1,37,1.0009298646617975,-0.004272790320115596,0.004783887165447016
1,38,1.0008928024698729,-0.004358275016172489,0.005351928988398635
1,39,1.0008520820441424,-0.004427182803606831,0.005872779805063303
1,40,1.0008089748735223,-0.00448087129770188,0.006338585801970166
1,41,1.0007647719462192,-0.004520613193682772,0.006743588306482382
1,42,1.000720710779795,-0.00454753801628508,0.00708397858560048
1,43,1.0006779176883014,-0.004562605955155984,0.007357628514220914
1,44,1.0006373763478014,-0.004566597325743314,0.007563864175800898
1,45,1.0005999058658126,-0.0045601221737195646,0.007703148532371107
1,46,1.0005661616263843,-0.004543634449498571,0.007776904859823192
1,47,1.0005366335360932,-0.004517457771222579,0.007787228212563344
1,48,1.0005116642803853,-0.004481808171187169,0.007736822576948125
1,49,1.000491452308945,-0.0044368246750650705,0.007628750547613059
1,50,1.0004760775331238,-0.004382591647135624,0.007466508473699724
1,51,1.0004654990996245,-0.0043191700869186335,0.007253778722102821
1,52,1.0004595855274692,-0.0042466143403570395,0.006994658849661008
1,53,1.0004581021318655,-0.0041650052731952835,0.006693345584907372
1,54,1.0004607481945857,-0.004074455150449964,0.006354553141863578
1,55,1.0004671313986866,-0.00397514915225662,0.005983011885403304
1,56,1.0004768183908666,-0.003867325502376927,0.005584163060360193
1,57,1.0004892939890107,-0.0037513413865809847,0.005163271698946221
1,58,1.000504033613337,-0.003627600127857932,0.004726597497082346
1,59,1.0005204438135868,-0.0034966784542757668,0.004279759988603325
1,60,1.0005379651737125,-0.0033591424876037164,0.003829820151657671
1,61,1.0005559885410378,-0.0032158154487089367,0.0033822218469479345
1,62,1.0005739942459495,-0.0030673712136571533,0.002944687351822633
1,63,1.0005914361081194,-0.002914891833641807,0.002521470085885048
1,64,1.0006079170563282,-0.002759051918570681,0.002120809028247145
1,65,1.0006230339389688,-0.002601190552663274,0.0017442509493737228
1,66,1.0006365792732541,-0.002441870370888356,0.0014006097724854174
1,67,1.0006483447966745,-0.0022826322647695966,0.0010870094150334383
1,68,1.0006583387066605,-0.00212388439624419,0.0008131234071243579
1,69,1.0006665561233277,-0.001967231281970685,0.0005704497395753706
1,70,1.0006731732782215,-0.001813027623915783,0.00036980798966297743
1,71,1.000678321047765,-0.0016626958674564132,0.00019718860155465938
1,72,1.0006823059240795,-0.001516580073074008,6.445147325401445e-5
1,73,1.0006853382316945,-0.0013759633411378593,-4.663023046741315e-5
1,74,1.0006876204083406,-0.0012412669527086617,-0.00012275759489029493
1,75,1.0006892901769173,-0.0011132459261033695,-0.0001844962788436083
1,76,1.0006907169199373,-0.0009920586690469297,-0.00021771087354895504
1,77,1.0006921176332801,-0.0008786458151220245,-0.0002443462970822743
1,78,1.0006934136337973,-0.0007735888461251787,-0.000247488887827827
1,79,1.0006943181151733,-0.0006774258210419595,-0.0002476165732097266
1,80,1.0006948951368315,-0.0005895099820643332,-0.00022566755414610932
1,81,1.0006954347924095,-0.0005091748063387369,-0.00020460444801093515
1,82,1.0006963173770378,-0.00043510101934343166,-0.00016699150415224546
1,83,1.000697630856022,-0.00036664093686777433,-0.00013942061065964006
1,84,1.0006993484153093,-0.00030280730770802187,-0.00010431791850998007
1,85,1.0007013505019393,-0.0002440419292249103,-9.000191469322612e-5
1,86,1.000703418673371,-0.00019026869486673466,-7.669197325825723e-5
1,87,1.0007055994351894,-0.00014409536477317803,-9.342563645807772e-5
1,88,1.0007073977916687,-0.00010717115605697555,-0.00011289882937578746
1,89,1.0007088105822293,-8.134605552114987e-5,-0.00015807167431105008
1,90,1.0007098042569325,-7.006065357324285e-5,-0.00018677374838649977
1,91,1.0007099845907304,-6.759264530035132e-5,-0.00020997886523856435
1,92,1.0007191064779708,-9.376233812198487e-5,-0.00016269194370879507
1,93,1.0007222553502504,-0.00015061158102165013,9.049290970927427e-6
1,94,1.0007221924835399,-0.00022809357886145718,0.00039787118087508536
1,95,1.0007214372009652,-0.0003139163756212279,0.0010446637364365974
1,96,1.0007788944481086,-0.0002816531039536702,0.0018018146624615742
1,97,1.0009638755419583,-0.0010352144402873526,0.003464108056958226
1,98,1.000279708215864,-0.001095925277056565,0.0066235927001870275
1,99,1.000739065794123,0.0005586789403424747,0.007653044413167603
1,100,1.0019174430467988,-0.0077034362357991425,0.01641382416640743
1,101,0.9965083021071726,0.02651863837729167,0.013988203546560099
2,1,1.0009155747574094,1.8574993668520135e-5,-5.553323449698039e-6
2,2,1.0009165929427044,3.91350009984448e-5,-3.512010715743449e-5
2,3,1.000916025564617,4.70162212179291e-5,-8.251116332949412e-5
2,4,1.0009158518800119,5.6451247947193503e-5,-0.0001408207056686814
2,5,1.0009156172939802,6.95311289348342e-5,-0.00021165483311809857
2,6,1.0009152609850345,8.566168209916887e-5,-0.000298182107686681
2,7,1.0009148270687236,0.00010550766929081907,-0.000402745602230492
2,8,1.000914296183586,0.00013015381919872138,-0.000528150364166362
2,9,1.000913645460591,0.00016070444255564018,-0.0006771840524384915
2,10,1.0009128501613922,0.00019816245479754952,-0.0008524852154445853
2,11,1.0009118993804962,0.00024332356509516246,-0.0010556517423459327
2,12,1.0009108068015857,0.0002967032777731652,-0.0012868957952819075
2,13,1.0009096299148603,0.0003584763930642911,-0.0015441433022255033
2,14,1.0009084852043106,0.000428451753560977,-0.0018227854205405895
2,15,1.0009075651935864,0.000506085725023462,-0.0021150823646957037
2,16,1.0009071423204345,0.0005905380405125549,-0.002410346476324265
2,17,1.0009075643935168,0.0006807573590965668,-0.002694950807799847
2,18,1.0009092290371353,0.0007755580205898028,-0.0029530699445969783
2,19,1.000912549822299,0.000873661793033204,-0.003167167468123234
2,20,1.000917909286932,0.0009736944092947464,-0.0033189275789379255
2,21,1.0009256155060908,0.0010741665862622452,-0.0033897656745018006
2,22,1.0009358565520623,0.0011734852402023608,-0.0033615998195465845
2,23,1.00094866501475,0.0012700513833768066,-0.0032172790378308235
2,24,1.0009638821517561,0.0013624692356444545,-0.002941367691416311
2,25,1.0009811310131262,0.0014498517367421448,-0.002520828127857168
2,26,1.0009997900064822,0.001532147933557721,-0.0019461255276674214
2,27,1.00101898519064,0.0016103924589935454,-0.001212215928713946
2,28,1.0010376024592507,0.001686781605166552,-0.00031966174517067446
2,29,1.0010543395868137,0.0017645332691311752,0.0007247055796898854
2,30,1.0010677868235756,0.001847531855928915,0.0019074210263450102
2,31,1.0010765440554257,0.0019398046098978087,0.0032087560143234176
2,32,1.0010793504280973,0.002044915720880018,0.004603593754923487
2,33,1.0010752221350794,0.002165413742647185,0.006062977192999269
2,34,1.0010635572763313,0.002302462429960816,0.007555910418116964
2,35,1.001044203744037,0.002455728722254661,0.009051295904282811
2,36,1.0010174609716815,0.002623512074519389,0.010519593402623203
2,37,1.0009840395171932,0.0028030464253596104,0.011934129198981298
2,38,1.0009449694822867,0.002990880379391133,0.01327192099482994
2,39,1.0009015014226295,0.0031832570831524256,0.014514053074513094
2,40,1.0008549908290099,0.0033764342276413127,0.015645713376716126
2,41,1.000806810127083,0.0035669208915352314,0.016655887036150535
2,42,1.0007582631467036,0.003751622213085144,0.017536991588604528
2,43,1.0007105415240398,0.003927908814118568,0.018284259233153008
2,44,1.0006646807193573,0.004093620363338463,0.018895337996299996
2,45,1.0006215583108542,0.004247032639323353,0.01936960681641162
2,46,1.0005818777616458,0.004386790934174472,0.01970797504292028
2,47,1.000546193142473,0.004511841930620781,0.01991220870515173
2,48,1.0005149019398003,0.00462134930723224,0.019985056539770986
2,49,1.0004882834568434,0.004714632486768957,0.019929540228207608
2,50,1.0004664861649069,0.004791089687716114,0.019749501686768964
2,51,1.000449574739678,0.004850164584313153,0.019448721702285426
2,52,1.0004375021675795,0.004891284014619265,0.019032011304220494
2,53,1.0004301677083147,0.004913864491354952,0.018503940709562766
2,54,1.0004273659524587,0.004917263519962519,0.017870670639666235
2,55,1.0004288640604817,0.004900837536248294,0.017137964263584084
2,56,1.0004343190801195,0.004863902091235067,0.01631406376428984
2,57,1.0004433884133683,0.004805854841747471,0.015406497704817184
2,58,1.0004556037133976,0.004726134965100313,0.014426455792347168
2,59,1.000470534313854,0.004624422071560655,0.013383681942463338
2,60,1.000487601762575,0.004500575634815786,0.012292997630761283
2,61,1.0005063212181586,0.0043549066190997805,0.011166297191548725
2,62,1.0005260360620725,0.004188064160758656,0.01002213692272934
2,63,1.0005462644050576,0.004001349492548205,0.00887356264879914
2,64,1.0005663297719931,0.0037965141566209176,0.007742030800970687
2,65,1.000585834830892,0.0035760488841780212,0.0066395677344039655
2,66,1.000604165238114,0.003342869604329388,0.005588674843787042
2,67,1.0006210976793044,0.0031005265879414995,0.004597268591171865
2,68,1.0006361627132148,0.0028527900087737274,0.003686399298360658
2,69,1.0006493756426043,0.002603707396140824,0.002856768576818298
2,70,1.0006604644525035,0.0023571522376096585,0.002125698228396829
2,71,1.0006696800594495,0.0021169734885159454,0.0014848579666575795
2,72,1.0006769241329068,0.0018864615724792698,0.0009467174514067822
2,73,1.0006826633005261,0.0016681648949930768,0.0004940643346051031
2,74,1.000686916324274,0.0014637504000023567,0.000135433641382007
2,75,1.0006901125379137,0.0012749891799493764,-0.00015253342614557786
2,76,1.0006922458045533,0.0011031982213374303,-0.0003635182403551764
2,77,1.000694018754173,0.0009477684617456788,-0.0005255641135658394
2,78,1.0006955199659124,0.000805958369788073,-0.0006311780545191804
2,79,1.0006969103154129,0.0006758394072536924,-0.0007051472730503612
2,80,1.0006975759925858,0.0005585887868597016,-0.0007337297105517569
2,81,1.0006977166631141,0.00045756986505940747,-0.0007440123559240769
2,82,1.0006973044631664,0.0003759839233597687,-0.0007298949193370373
2,83,1.0006969984084204,0.00031543861991872055,-0.000731618538358479
2,84,1.0006965082424863,0.00027564118402887994,-0.0007505624341123202
2,85,1.0006960280190647,0.00025625596908023586,-0.0008315855696756131
2,86,1.0006950552252694,0.00025528955242482167,-0.0009726237160927113
2,87,1.0006933659767852,0.00026802658131750687,-0.001211063684345328
2,88,1.0006911376427485,0.00028388242990657735,-0.0015257635492871582
2,89,1.0006879709951197,0.00028798034919564247,-0.0019245266867669345
2,90,1.0006852072181562,0.00026694268834338554,-0.0023538301282889926
2,91,1.0006859426021049,0.00018572374870734086,-0.002771301726536386
2,92,1.0006903051745106,1.134660817226589e-5,-0.0030662898764188
2,93,1.0007151735231647,-0.00034711574295640977,-0.0031348875639117713
2,94,1.0007240712646657,-0.0008147110644480022,-0.0027716626262068384
2,95,1.0007804984499642,-0.0011475836462867845,-0.0021384076946489865
2,96,1.0008444988509726,-0.0022668096585019082,-0.00041770664113156266
2,97,1.0007460278794458,-0.0037368212392375807,0.0019897462113819928
2,98,1.0014997312077965,-0.004494297861180583,0.003943066422368543
2,99,1.000403218345759,-0.010778237486011269,0.016146074786722277
2,100,0.9996201343573897,-0.012212590148075554,0.021800353230644057
2,101,1.003768626162354,0.05153338169599672,0.005625357020549171
3,1,1.000915617943553,3.122719259161576e-5,-5.463279360594935e-6
3,2,1.0009172113579219,8.045612606973462e-5,-3.877398425763883e-5
3,3,1.0009167332462536,0.00010693022628043,-0.00010115492747227409
3,4,1.0009162777583633,0.00012983562277776108,-0.00018639667616848247
3,5,1.0009159638142104,0.00015718024472077783,-0.000291178806563477
3,6,1.000915595285427,0.00018889682321952722,-0.00041809010889615374
3,7,1.0009151094076383,0.0002241185911038583,-0.0005707808148014658
3,8,1.0009145169614304,0.000262462740633819,-0.0007524187203236637
3,9,1.0009137863346504,0.0003026359644193148,-0.000965583133392973
3,10,1.0009128961985965,0.0003419127009573026,-0.0012118199205171005
3,11,1.000911846860361,0.0003760408467924957,-0.001490311007775557
3,12,1.0009106714197256,0.0003992791545426605,-0.0017973025248307962
3,13,1.000909451907254,0.0004046330032569584,-0.0021251106599235233
3,14,1.0009083322220007,0.0003842820793993691,-0.0024621536802745337
3,15,1.0009075253337831,0.0003302070184759494,-0.002792875923023773
3,16,1.0009073092350342,0.00023494054401379248,-0.0030987748006677295
3,17,1.0009080097984338,9.22919291357642e-5,-0.0033592731516593676
3,18,1.000909973053734,-0.00010212466608133335,-0.0035532950402970436
3,19,1.0009135308080939,-0.0003506579276163593,-0.0036602065235078795
3,20,1.0009189685796693,-0.0006536542261024233,-0.0036608999700384628
3,21,1.0009264983934392,-0.0010096286329727981,-0.0035379942760265246
3,22,1.0009362396456454,-0.0014153984430745733,-0.0032761786535480363
3,23,1.0009482008108845,-0.0018660517525943918,-0.0028620768864900145
3,24,1.00096225669833,-0.002354728497460835,-0.0022847354528866444
3,25,1.0009781131556454,-0.00287232704066877,-0.001536108240544391
3,26,1.000995265040446,-0.0034073379556674465,-0.000612275660512412
3,27,1.0010129604844415,-0.003946005367310951,0.00048553865844847894
3,28,1.001030189684889,-0.004472913845361945,0.0017497501208823324
3,29,1.0010457120858862,-0.004971982265354255,0.0031659924142263974
3,30,1.0010581310348619,-0.005427748352878173,0.004713082358565508
3,31,1.00106601967825,-0.005826750320862946,0.0063641386730174014
3,32,1.001068077902918,-0.006158742002000567,0.008088116356001986
3,33,1.0010632933265904,-0.006417491092550607,0.009852105357224894
3,34,1.0010510635067802,-0.006601005749004135,0.011623375472912572
3,35,1.0010312637834353,-0.006711198635223051,0.01337144400102103
3,36,1.0010042411839806,-0.006753123262218606,0.015069300806336314
3,37,1.0009707575781204,-0.0067339936006273905,0.01669435097572344
3,38,1.0009318854346192,-0.006662180616254061,0.018228486887369093
3,39,1.0008888979809267,-0.006546339238342994,0.019658057434627212
3,40,1.0008431514413296,-0.006394736096010761,0.020973232190923393
3,41,1.0007959961947546,-0.006214806036299181,0.022167538759265634
3,42,1.0007486969396748,-0.006012905433882341,0.023237029466247366
3,43,1.0007023910851325,-0.00579423511477625,0.024179786236727386
3,44,1.0006580531210532,-0.0055628715286579694,0.024995181786019654
3,45,1.0006164917389702,-0.005321884707429958,0.02568351887381728
3,46,1.000578343414543,-0.005073485675201445,0.026245491810085335
3,47,1.0005440896117241,-0.004819208992292806,0.02668197326712998
3,48,1.0005140636005374,-0.004560077740423151,0.0269936975007839
3,49,1.0004884727031702,-0.0042967867559027305,0.027181136149244806
3,50,1.0004674092595307,-0.004029843539375755,0.027244421766748978
3,51,1.0004508692912286,-0.0037597332713873353,0.02718322317897839
3,52,1.000438765482815,-0.003487023450816044,0.02699697661690017
3,53,1.000430937989404,-0.0032125097891079583,0.02668464123066261
3,54,1.000427171957489,-0.002937277917373146,0.02624538861616776
3,55,1.0004271975958892,-0.0026628278142814123,0.02567805740577678
3,56,1.0004307171468396,-0.0023910766234487776,0.024982564202532313
3,57,1.0004373902806207,-0.002124447404191081,0.024158751592272796
3,58,1.0004468759984442,-0.0018657828323951449,0.02320891970490266
3,59,1.000458796982264,-0.0016183724882099023,0.022135544136086396
3,60,1.000472801206168,-0.0013857408501800265,0.020945478330143413
3,61,1.000488497143723,-0.001171591397751206,0.019645693567713764
3,62,1.000505538808111,-0.0009794517673603958,0.018249858900380014
3,63,1.0005235265691796,-0.0008125484395784956,0.016770865130589504
3,64,1.0005421183166363,-0.0006733468418588024,0.015230655929922813
3,65,1.0005609003433291,-0.000563442235144724,0.01364798315281759
3,66,1.0005795257679155,-0.00048311606660360394,0.012052552258977379
3,67,1.0005975766137247,-0.0004313688381415132,0.010466442204706519
3,68,1.0006147134837364,-0.00040567253458022973,0.008923837682342391
3,69,1.0006305647877753,-0.0004022905157085351,0.007445041601151286
3,70,1.0006448617172743,-0.0004163510307708287,0.006063051660429656
3,71,1.000657379577203,-0.00044228728743175047,0.004790099828865101
3,72,1.0006679774229643,-0.0004742079847030293,0.0036520855701690515
3,73,1.000676637195986,-0.0005067625663621152,0.0026483532379828864
3,74,1.0006834457681875,-0.0005356458247011935,0.0017938407499348042
3,75,1.000688622028527,-0.0005569726937289956,0.001074024910219225
3,76,1.0006922450532496,-0.0005669205257647841,0.0004941751935156833
3,77,1.0006946178047447,-0.0005642002922578058,2.8520002670710436e-5
3,78,1.0006961869417101,-0.000552737664200481,-0.000325744237593236
3,79,1.0006974361170793,-0.0005383832494854878,-0.0005987260821140118
3,80,1.0006981416245446,-0.0005211049367556574,-0.0007881239546643434
3,81,1.0006979229949604,-0.0004916939733212144,-0.0009202969950087857
3,82,1.0006965926279765,-0.0004359737988380262,-0.0009999930892927022
3,83,1.0006945680086197,-0.00034216333098296845,-0.0010751072604037765
3,84,1.0006922433467418,-0.00020545313449170588,-0.001173783542440249
3,85,1.0006898881372246,-2.7925529606565076e-5,-0.001356692411757909
3,86,1.0006873023707035,0.00018095314703517071,-0.001647091049975952
3,87,1.0006844806257449,0.0003975706035691153,-0.0020816701375792903
3,88,1.0006801709065134,0.0005905865239289778,-0.00263808269199445
3,89,1.0006762421214586,0.0007227154938221856,-0.003303835314468555
3,90,1.0006722589950174,0.0007439248724979916,-0.003984934539245704
3,91,1.0006699299742068,0.0006172882950980659,-0.004617057742180302
3,92,1.000673822491673,0.00024127143237413296,-0.005047480303230871
3,93,1.0006670577115315,-0.0003752629129154136,-0.005223275083911315
3,94,1.0007224708284417,-0.00113820206483221,-0.005260847477462579
3,95,1.0007285553173273,-0.0024717035095438177,-0.004316571828918295
3,96,1.000599023481717,-0.003600808455545306,-0.003298891991834311
3,97,1.0010509203769817,-0.0052422831541122155,-0.0029446010402064105
3,98,1.0006780533731319,-0.012346948176583345,0.003565268978375591
3,99,0.9995190082519264,-0.016961525671263935,0.005934667325934292
3,100,1.0005777678198242,-0.0027546856050471294,-0.0006262761447372762
3,101,1.0004956966661092,0.05518196191720744,-0.0019286055719295874
4,1,1.0009152593265565,5.302603364013389e-5,-6.7388049724819e-6
4,2,1.000917068107824,0.00013712734564076302,-4.6110263628209815e-5
4,3,1.0009168139352584,0.00019485378571397878,-0.00012101441621671152
4,4,1.0009163823589697,0.00024435763951548777,-0.0002271096189940317
4,5,1.0009159152841531,0.00029734692554794637,-0.0003593814818461592
4,6,1.0009155694304497,0.0003594507870998296,-0.0005159738670486236
4,7,1.00091518747091,0.0004316968487600417,-0.0006991581150123477
4,8,1.0009147042202946,0.0005140257163502776,-0.000911401589866284
4,9,1.000914138803267,0.0006057762558496458,-0.001152669815422043
4,10,1.0009134935339667,0.0007044962020043463,-0.0014205347083320946
4,11,1.0009127944953724,0.0008056965753802488,-0.0017088739926361869
4,12,1.0009121020292477,0.000903155795566865,-0.0020075462353883813
4,13,1.0009115142766034,0.0009895114555215632,-0.002301892082326486
4,14,1.0009111724085205,0.0010571292576526312,-0.0025736904197926334
4,15,1.0009112547382144,0.0010990870479629848,-0.002802057756509818
4,16,1.0009119634728352,0.001110058732720294,-0.0029655176203070405
4,17,1.0009135024306244,0.001086833961428132,-0.0030434010303290915
4,18,1.0009160544930316,0.0010282974738533232,-0.0030175216151152274
4,19,1.0009197622860992,0.0009348950384164357,-0.002872435215669199
4,20,1.0009247215670092,0.0008078431771821338,-0.0025955391098648932
4,21,1.0009309852391692,0.0006484677842964953,-0.0021759867753651276
4,22,1.0009385743890715,0.00045803475237959386,-0.0016041614986802646
4,23,1.000947479038167,0.0002382409786236311,-0.0008710443212213003
4,24,1.0009576355704248,-7.74148470691571e-6,3.097170134024534e-5
4,25,1.0009688750609393,-0.0002740477210722763,0.0011069651427471285
4,26,1.0009808537704592,-0.0005512032283476302,0.0023572522154652145
4,27,1.0009929887168263,-0.0008259065134262365,0.003775708978741996
4,28,1.001004418032371,-0.0010816943731931648,0.005348111298955186
4,29,1.0010140188700034,-0.0013004721060747625,0.007052116803100726
4,30,1.0010204907439497,-0.0014646371191341287,0.008857997968101272
4,31,1.001022511676982,-0.001559336466262916,0.010731130469906897
4,32,1.001018914392601,-0.001574307020137068,0.012634589823561193
4,33,1.0010088595518045,-0.001504908033852304,0.014532413361269342
4,34,1.0009919382936037,-0.0013521958126649933,0.016391766434464695
4,35,1.000968220649477,-0.0011221851184356705,0.018184940912623643
4,36,1.0009382119584451,-0.0008245775416969919,0.019889828666806823
4,37,1.0009027845070126,-0.0004713083671254712,0.021490323920867964
4,38,1.0008630535974559,-7.517066127783891e-5,0.02297549155146757
4,39,1.0008202825015304,0.0003512955880004276,0.024339156399046533
4,40,1.0007757623686235,0.000796598828806749,0.025578614637726572
4,41,1.000730752232625,0.0012507655265655113,0.026694136328404918
4,42,1.0006863986033534,0.0017055518393115946,0.027687734520536127
4,43,1.000643723169708,0.0021544459355517975,0.028562900827742533
4,44,1.000603579294283,0.002592545322169729,0.02932358564549688
4,45,1.0005666740212789,0.003016345814067454,0.029974215675468416
4,46,1.0005335451623265,0.003423505168352584,0.030518857014941902
4,47,1.0005045997541684,0.003812587757505019,0.03096145831543761
4,48,1.00048009762271,0.004182833638153621,0.031305116853622465
4,49,1.0004601936156583,0.004533930647474704,0.03155247687310189
4,50,1.0004449203615846,0.004865828792251916,0.031705029099350655
4,51,1.0004342278136147,0.005178550817497856,0.03176361290229264
4,52,1.0004279639148417,0.00547205274513113,0.0317277167302206
4,53,1.0004259092939922,0.005746059296999377,0.03159605633111357
4,54,1.0004277587537376,0.0059999634076030525,0.031365901656571105
4,55,1.0004331513142788,0.00623267289984084,0.0310337178312343
4,56,1.0004416583845803,0.006442554454469444,0.03059463312397953
4,57,1.0004528100634427,0.006627295110119787,0.030043118047622247
4,58,1.00046609761736,0.006783922786986891,0.029372838630665393
4,59,1.0004809954660905,0.006908715598188853,0.02857727582118107
4,60,1.0004969850073926,0.006997362011522318,0.02765036953974636
4,61,1.000513566540387,0.007044980407517687,0.026586781693757503
4,62,1.0005303069000873,0.007046493955186723,0.025383887032435454
4,63,1.0005468266704474,0.006996823768058303,0.02404098815050166
4,64,1.0005628659250183,0.006891506441803602,0.02256328630224228
4,65,1.000578224524456,0.006727052869027782,0.0209587763751427
4,66,1.0005928389744523,0.006501708554613096,0.019244802513053026
4,67,1.0006066568309426,0.006215817567126324,0.017440814797783127
4,68,1.0006197297984538,0.005872445361285601,0.015578088087116025
4,69,1.0006320310314176,0.005477441284508512,0.013686467581668969
4,70,1.0006435975528194,0.005039579276217954,0.011807898472096628
4,71,1.0006543160969992,0.004570057307116843,0.009976186765318668
4,72,1.0006641319265406,0.004082017629491436,0.00823537093723982
4,73,1.0006728396208155,0.0035893998294134572,0.006613085268613558
4,74,1.0006803826047743,0.0031058390889106007,0.005144366894754608
4,75,1.000686658440929,0.002643777916065578,0.003840764520041882
4,76,1.0006916976242692,0.0022146686263528376,0.0027211990014249813
4,77,1.0006953653907578,0.0018275373048446948,0.001779079916105311
4,78,1.000697856483114,0.0014850218244473097,0.001015047070190632
4,79,1.0006996187185317,0.0011819752459120694,0.0004032875113673764
4,80,1.0007011133477892,0.0009142609884726226,-6.600632805820967e-5
4,81,1.000702042683036,0.0006904005769212309,-0.0004166164093022853
4,82,1.000701902513244,0.0005340699634106322,-0.0006562189652955429
4,83,1.0007006387656003,0.0004723265895329223,-0.0008245304250757212
4,84,1.0006988296776353,0.0005201151041555502,-0.0009634157000756081
4,85,1.0006972814669344,0.0006746429652384194,-0.0011435916596004025
4,86,1.000696504609963,0.0009095343579233526,-0.0014098300375818282
4,87,1.0006955578434187,0.0011747412518589829,-0.001795481588957205
4,88,1.0006951429528799,0.0014038556711502006,-0.0022795426425493426
4,89,1.0006934052613463,0.0015180755101819555,-0.0028002184140178566
4,90,1.000693328113886,0.0014477062279356,-0.003273409691422981
4,91,1.0006928397231845,0.001093790491033993,-0.00355273124716323
4,92,1.000684420116284,0.00049224905698468,-0.003610134277930038
4,93,1.000722702934211,-0.00032522276158539627,-0.003552860772341463
4,94,1.0006980658567446,-0.0017822507306431196,-0.0027834367631407323
4,95,1.0006587668515414,-0.0030322803924882147,-0.00235059635904366
4,96,1.0009814625063715,-0.00429321923867357,-0.0020265366233909216
4,97,1.00058121146552,-0.009624616289782771,0.002560458307495362
4,98,1.0000571201036499,-0.014201496581980173,0.0030718528004796417
4,99,1.000889680232748,-0.010606852717436185,-0.0020722461947209063
4,100,1.0012752844510917,-0.0015247703448796567,-0.0024822298905643647
4,101,0.9997796421447613,0.05207703653196831,-0.0005520691056467228
5,1,1.0009149820053924,7.139802124018689e-5,-7.690304061311698e-6
5,2,1.0009169806865963,0.0001960635995865035,-5.301393853197448e-5
5,3,1.000916696723268,0.0002883548061270876,-0.00013900282777543053
5,4,1.0009163929388893,0.0003663183260218643,-0.0002588585725480532
5,5,1.0009159596069963,0.00044174529026582793,-0.00040725686984088014
5,6,1.000915525980133,0.0005225803043252445,-0.0005801465440757614
5,7,1.0009151791549797,0.0006117517810250691,-0.0007751735107396922
5,8,1.0009147768726225,0.0007063307275653746,-0.0009917423787953275
5,9,1.0009142619904463,0.0008001780040162887,-0.0012264180595872576
5,10,1.0009136552441422,0.0008845623707589183,-0.0014716663653709463
5,11,1.0009129629474998,0.0009477537373404678,-0.0017155411054633855
5,12,1.0009122101887264,0.0009758019150906665,-0.0019424013191491202
5,13,1.0009114547487188,0.0009540675986363906,-0.0021331802856841657
5,14,1.000910792378615,0.0008689948196080386,-0.002267486457170808
5,15,1.0009103607050034,0.0007097788337664076,-0.0023251049998970984
5,16,1.0009103349296629,0.00046948355575997784,-0.002288366205537493
5,17,1.0009109157369507,0.00014527701919052414,-0.0021427961640076293
5,18,1.0009123194859715,-0.0002622651354903123,-0.001877577754880879
5,19,1.000914774442569,-0.0007504565310021753,-0.001483918300514392
5,20,1.000918531709988,-0.0013157568298386927,-0.0009536707499572309
5,21,1.0009238780994878,-0.001954320653986817,-0.00027718568181466744
5,22,1.000931132597962,-0.002661438336082138,0.0005568748143178809
5,23,1.0009405990775482,-0.0034299779063288716,0.0015610175400864613
5,24,1.0009524663962086,-0.004248418350517665,0.00274588175421421
5,25,1.000966676263457,-0.0050993171905698974,0.00411715091370389
5,26,1.0009827886476894,-0.005958916760437823,0.005671547326763527
5,27,1.000999897910314,-0.006798260185158826,0.007394840306342641
5,28,1.001016626031195,-0.007585752373720901,0.009260774599895025
5,29,1.0010312442671763,-0.008290702511733083,0.01123321400111355
5,30,1.0010418786038857,-0.008887012711331861,0.013269123031958074
5,31,1.0010467875800848,-0.009356128173513596,0.015323580433382666
5,32,1.0010445876337535,-0.009688591162991226,0.017353559972315115
5,33,1.0010344381817686,-0.00988404496512743,0.019321900113932464
5,34,1.0010160789742883,-0.009949929110105105,0.021198661762359093
5,35,1.0009898283246392,-0.009899405802274391,0.02296239365463986
5,36,1.0009564514002454,-0.009749041612637826,0.024598990193843956
5,37,1.0009170706204602,-0.009516698194854773,0.026101305594859826
5,38,1.0008729864097963,-0.009219848359383396,0.027467012671604712