TITLE="CMs_NON_Orthogonal Re = 10000.0"
VARIABLES = X,Y,Rho,U,V
ZONE
I = 101	J = 101
F=POINT
1,1,1.0009880914289346,2.235879187109095e-6,-2.9271960740221025e-6
1,2,1.00098923126532,6.073207874094805e-6,-1.8875617702497392e-5
1,3,1.000989151418282,6.518225241892159e-6,-3.9770353785154574e-5
1,4,1.0009893817230557,7.486385268230748e-6,-6.381716610907791e-5
1,5,1.0009896282518649,8.592036943284849e-6,-9.250562940201031e-5
1,6,1.0009898754075295,9.584826776629837e-6,-0.0001269468081563426
1,7,1.00099014577354,1.0249522379273918e-5,-0.00016802041892338427
1,8,1.0009904527372486,1.0306217711731815e-5,-0.00021685305324902886
1,9,1.0009907889338119,9.314766382185585e-6,-0.00027454418327391004
1,10,1.0009911378815597,6.6380300458016475e-6,-0.00034228695773257914
1,11,1.0009914739954224,1.4348294446294942e-6,-0.000420916601532325
1,12,1.0009917742714989,-7.34215347540328e-6,-0.0005109444053487369
1,13,1.0009920295183026,-2.093178595099704e-5,-0.0006120813063578246
1,14,1.0009922603822812,-4.072731542663041e-5,-0.0007232422861566399
1,15,1.0009925341860715,-6.82208158674141e-5,-0.0008421228366725982
1,16,1.0009929813753482,-0.00010491293274427289,-0.0009652645538814165
1,17,1.000993803879277,-0.0001522147838918317,-0.001087801277841743
1,18,1.0009952726533988,-0.00021133639503415213,-0.0012036783614377895
1,19,1.000997709196457,-0.00028319533658736185,-0.0013056140287172231
1,20,1.0010014544884134,-0.0003683307133779033,-0.0013854488289837337
1,21,1.0010068253323716,-0.0004668443706526608,-0.0014342645212200994
1,22,1.0010140646377104,-0.0005783478285904298,-0.0014428156099041748
1,23,1.0010232866885365,-0.0007019341393083527,-0.0014017970511971498
1,24,1.0010344243346476,-0.0008361615747851448,-0.0013024075847732001
1,25,1.0010471806579238,-0.0009790725125641544,-0.0011368290525770003
1,26,1.001060994144331,-0.0011282427146247986,-0.0008989567243951002
1,27,1.001075024341127,-0.001280879133017908,-0.0005850101561460471
1,28,1.001088172047071,-0.0014339532039565831,-0.0001942143775497338
1,29,1.0010991413793506,-0.001584368023855021,0.00027080800751116464
1,30,1.0011065437884157,-0.0017291365480227693,0.0008037907592700358
1,31,1.0011090297552556,-0.0018655742498959306,0.0013949881393029587
1,32,1.001105431138818,-0.0019914904342603077,0.0020315963680293063
1,33,1.001094891774898,-0.002105338804538896,0.002698611574442653
1,34,1.0010769655806968,-0.0022062634213044973,0.0033798316572564535
1,35,1.0010516642337708,-0.0022940412006121516,0.004058957646475637
1,36,1.0010194492893465,-0.0023689539090662503,0.0047205001444130205
1,37,1.0009811735952099,-0.0024316398152991166,0.005350533998285019
1,38,1.000937988132548,-0.002482948457262585,0.005937145258845929
1,39,1.000891231885959,-0.0025238203259652574,0.006470690257552519
1,40,1.0008423239659467,-0.002555191904990306,0.006943798615690124
1,41,1.000792668980665,-0.0025779323077102646,0.007351266595681728
1,42,1.000743584982553,-0.0025928027041958687,0.007689810410923988
1,43,1.0006962526363443,-0.0026004393740244047,0.007957802989771768
1,44,1.0006516874470581,-0.0026013496809005952,0.008154971198230524
1,45,1.000610726166701,-0.0025959216220894513,0.0082821294628741
1,46,1.0005740289935727,-0.0025844375646923933,0.008340936173192561
1,47,1.0005420852502098,-0.0025670944679829317,0.008333693349066019
1,48,1.000515228975529,-0.0025440229955433634,0.008263205969151017
1,49,1.0004936489449192,-0.0025153096920146278,0.008132655977813288
1,50,1.0004774074197418,-0.0024810152951358746,0.007945568829593819
1,51,1.0004664462920234,-0.0024411955632275455,0.007705736498728295
1,52,1.0004606057560095,-0.002395915766058808,0.007417282865832364
1,53,1.000459623672031,-0.0023452699134644357,0.007084589775228607
1,54,1.000463156008661,-0.0022893881974226727,0.006712457088466936
1,55,1.0004707694822268,-0.0022284566276342703,0.006305962180564129
1,56,1.0004819687858517,-0.0021627107297245516,0.005870730019851287
1,57,1.000496183539911,-0.0020924619060486145,0.005412615056014732
1,58,1.000512808845194,-0.0020180631852427236,0.004938145313280947
1,59,1.0005311867260445,-0.001939959495223442,0.004453838292517381
1,60,1.0005506660529566,-0.0018585967224031808,0.003966997231596356
1,61,1.0005705760722732,-0.0017745368759087548,0.0034843255563875215
1,62,1.0005903082989005,-0.0016882553677249315,0.003013500680173324
1,63,1.0006092755867948,-0.0016004025821695497,0.002560470621369437
1,64,1.000627013314573,-0.0015113932204121462,0.0021326938995065103
1,65,1.0006431147727015,-0.0014219435140743883,0.001734012113901644
1,66,1.0006573392325522,-0.0013323356491996942,0.0013711293211797963
1,67,1.0006695185359533,-0.0012433212461307117,0.0010443619170149153
1,68,1.0006796659293753,-0.0011550482841533065,0.0007593863766408829
1,69,1.0006878470212954,-0.0010682755981102764,0.0005121357289363522
1,70,1.0006942565405625,-0.0009831169939025107,0.0003073693096627598
1,71,1.0006991152452032,-0.000900199758709863,0.00013687286948161682
1,72,1.000702768506591,-0.0008196983622144639,4.650112298681621e-6
1,73,1.0007054610655373,-0.0007423152459425486,-0.00010029840953166373
1,74,1.0007073668227449,-0.0006682457420574044,-0.0001736278433487646
1,75,1.0007087292420442,-0.0005977337841540321,-0.00022780046807176652
1,76,1.0007099816169454,-0.0005309583474165802,-0.0002585396466407066
1,77,1.0007112651813501,-0.0004687612510767199,-0.0002783874408642856
1,78,1.000712321902068,-0.00041171006788242714,-0.0002799569072633113
1,79,1.000712897957374,-0.00035992474220691953,-0.0002735035172877007
1,80,1.000713210348296,-0.00031262902156680794,-0.00025081864696882783
1,81,1.0007136729893933,-0.00026907201040962274,-0.0002250853202942142
1,82,1.00071460700923,-0.00022833304443435176,-0.00019053406263360936
1,83,1.000716015518055,-0.00018996297260602264,-0.00016299647847413813
1,84,1.000717800232381,-0.00015339915952918026,-0.00013681332749417065
1,85,1.000719853500306,-0.00011900718982022975,-0.0001287214994079003
1,86,1.0007219168963297,-8.690969129115343e-5,-0.00013170749833603214
1,87,1.0007240234279489,-5.922709412580896e-5,-0.00016162977397620156
1,88,1.0007256266412055,-3.74807817938e-5,-0.00020414764946365173
1,89,1.0007267759974845,-2.3561364401832755e-5,-0.00026678357370447226
1,90,1.000727378395864,-2.145225495847192e-5,-0.000319187780143659
1,91,1.0007274013746574,-2.6268984562399135e-5,-0.0003550123593321517
1,92,1.0007367843428348,-5.8071218805879e-5,-0.0003201844939635918
1,93,1.000741041185026,-0.00011936194137473021,-0.00014692204500422207
1,94,1.000743095736384,-0.0002008814721099466,0.0002481502117191531
1,95,1.0007434119209222,-0.0002899896420173618,0.0009117771518484807
1,96,1.0008044791564237,-0.0002619190135062096,0.0016967704662703737
1,97,1.0009916201891336,-0.0010195780701829711,0.0033933304681487723
1,98,1.0003037045907122,-0.0010840170273172397,0.006587003111343998
1,99,1.0007692497547969,0.0005705827158219699,0.007661340657776172
1,100,1.0019453648638406,-0.007685822408306806,0.016408189724239387
1,101,0.9965293031360525,0.026525389621324696,0.01399684941317597
2,1,1.0009867335060847,1.8950043379464442e-5,-6.072479580140632e-6
2,2,1.0009878441743507,4.15931512512187e-5,-3.844513480247057e-5
2,3,1.000987222692752,5.0122226232220104e-5,-9.071318899809431e-5
2,4,1.00098699250056,5.9403699281448265e-5,-0.0001547462687823738
2,5,1.000986708896196,7.205715034789488e-5,-0.00023187340432701282
2,6,1.000986296846828,8.728248534713101e-5,-0.000325445703180994
2,7,1.000985796091995,0.00010535621120179546,-0.0004379739462947321
2,8,1.0009851859011245,0.0001268890456974483,-0.0005723153650077002
2,9,1.0009844430156818,0.00015235624034329328,-0.0007312747903561181
2,10,1.0009835442505086,0.00018194547701070658,-0.000917375534764735
2,11,1.0009824828806662,0.0002154742830124346,-0.0011319610286086254
2,12,1.000981282687122,0.00025237022245471586,-0.0013747634039734124
2,13,1.0009800178016204,0.0002916728721486042,-0.0016430545551019081
2,14,1.0009788298381666,0.00033207936738681665,-0.0019313917487118282
2,15,1.0009779432862962,0.0003720350759834186,-0.002231119161933458
2,16,1.0009776684192646,0.00040986454494490866,-0.0025305734441744753
2,17,1.0009783925542193,0.00044391576920580357,-0.0028151610218933565
2,18,1.0009805523566249,0.00047267429751889447,-0.003068065784940738
2,19,1.0009845963012047,0.0004948274455855566,-0.003270719203765804
2,20,1.0009909363186482,0.0005092839255406356,-0.003403655049009652
2,21,1.0009998998629497,0.0005151889765229555,-0.003447013382155659
2,22,1.001011679524141,0.0005119809055790892,-0.003381343838472919
2,23,1.0010262877200986,0.0004995295396271077,-0.003188187847736334
2,24,1.0010435109500382,0.0004783565415649964,-0.002851083816183604
2,25,1.00106287143739,0.0004498946835467002,-0.00235653087634657
2,26,1.0010835961894324,0.00041669551907454666,-0.0016953444729650889
2,27,1.001104612425746,0.00038248929337721577,-0.000863806337356191
2,28,1.0011245766532724,0.00035203117820764075,0.0001351985124360464
2,29,1.0011419508323285,0.00033073050614177145,0.0012916659820737706
2,30,1.0011551152119138,0.0003241035025793533,0.002588391156910984
2,31,1.0011625163195896,0.0003371298023684812,0.004001743889022906
2,32,1.0011628234859669,0.00037362891764751986,0.005502955781988424
2,33,1.0011550768653106,0.000435796867011166,0.007060047349192072
2,34,1.0011387883174259,0.0005240050826376515,0.008639832803810005
2,35,1.0011139877838657,0.000636883791498175,0.010209947683785065
2,36,1.001081198489662,0.0007716304711245875,0.011740412117412202
2,37,1.001041365263476,0.0009244463103428134,0.013204821073784978
2,38,1.0009957404192602,0.001090999255380403,0.014580932815728004
2,39,1.0009457658683811,0.0012668384719465428,0.01585089537711802
2,40,1.0008929521624148,0.0014477147742418183,0.017001050951564525
2,41,1.00083878664501,0.0016297954795800118,0.01802156266138835
2,42,1.000784654969234,0.0018097788292206697,0.01890586960067923
2,43,1.0007317999224865,0.001984929728706593,0.019650111606479746
2,44,1.0006812887503507,0.002153054828352684,0.02025257947521111
2,45,1.0006340126914472,0.0023124429372182597,0.020713173691706437
2,46,1.0005906821792396,0.002461780929577919,0.021033032329348143
2,47,1.0005518482426148,0.0026000672166905043,0.021214100728046678
2,48,1.0005179068018808,0.0027265194127804094,0.02125901035546131
2,49,1.0004891280293897,0.0028404980003410526,0.02117073712398387
2,50,1.0004656573063053,0.0029414280402150533,0.020952764682536158
2,51,1.0004475464645206,0.0030287489548794797,0.020608754791050402
2,52,1.000434744690816,0.003101856997645217,0.020143036853296787
2,53,1.000427131828115,0.0031600895153646802,0.019560172086506122
2,54,1.000424495427554,0.0032026902795939706,0.018865844664190893
2,55,1.0004265707319087,0.003228837689239545,0.018066143512126258
2,56,1.000433000643753,0.003237635051380038,0.017168975461730112
2,57,1.0004433907449055,0.0032281948767165477,0.01618279477339417
2,58,1.000457248126505,0.003199653689922312,0.015118712536927469
2,59,1.0004740636187526,0.0031513208352731852,0.01398826862028673
2,60,1.0004932237703301,0.0030827066728035123,0.012806485653676007
2,61,1.000514135875781,0.0029937267986846214,0.011588117619593368
2,62,1.0005361048505685,0.0028847112444332153,0.010352020810403264
2,63,1.0005585173528924,0.0027566253527047412,0.009115173101501842
2,64,1.0005806715217098,0.0026110105482505495,0.00789894526913478
2,65,1.0006020312047181,0.0024501440102908645,0.006720128228626101
2,66,1.0006219933813478,0.0022768679212972153,0.005599983595781853
2,67,1.0006402102447276,0.0020946422733691015,0.004551601323174684
2,68,1.0006562801978656,0.0019072354254474982,0.0035928165785701384
2,69,1.000670125706663,0.0017186017072366299,0.0027295228800235803
2,70,1.0006816008628225,0.0015325831962647832,0.0019733906432428984
2,71,1.0006908859495924,0.0013528905287258708,0.0013211839689780257
2,72,1.0006980591164547,0.001182550043160943,0.000777404355241119
2,73,1.000703542331868,0.0010235851734080022,0.00033014825978380053
2,74,1.0007074953936899,0.000877427715875694,-2.138599148444189e-5
2,75,1.0007102395961933,0.0007458051058205339,-0.00029456685894056387
2,76,1.0007120173570243,0.0006294614975357759,-0.0004937343219359176
2,77,1.0007135208765339,0.0005263311962813729,-0.0006398769798006324
2,78,1.0007148717796523,0.00043275760133841757,-0.000734741616662536
2,79,1.0007159019215515,0.00034743608607867924,-0.000793028898477948
2,80,1.000716126484376,0.00027296682227307816,-0.0008112652760949097
2,81,1.0007157877036306,0.00021344346122217198,-0.0008089751393975293
2,82,1.0007151406405352,0.00017189039681644077,-0.0007937639939342133
2,83,1.000714656934061,0.0001494730710375541,-0.0007979084927407862
2,84,1.000714072590021,0.0001458841064084631,-0.000835384152418343
2,85,1.0007133401090649,0.00016072795330071711,-0.0009405173935910021
2,86,1.0007120462054355,0.00019100511609549626,-0.0011226572140620253
2,87,1.000709812398648,0.00023041436425646868,-0.001405303628772608
2,88,1.0007070456467144,0.0002663578775218306,-0.0017758874208495079
2,89,1.0007032459737075,0.0002816435382333679,-0.0022233963631550072
2,90,1.0007002585533116,0.0002611323877522073,-0.002698912059940007
2,91,1.0007011620197104,0.00017128351997672305,-0.0031385888751464504
2,92,1.00070689197444,-1.7487568234062672e-5,-0.0034409958263247006
2,93,1.0007339938182749,-0.00039293855277568255,-0.0034881491835216318
2,94,1.0007457481370823,-0.0008753527742768822,-0.003093890712519344
2,95,1.0008061632680771,-0.0012270408387659582,-0.0024058581522267823
2,96,1.0008727382071432,-0.002361585987358188,-0.0006176411600122914
2,97,1.0007741433452757,-0.0038404184047858806,0.0018703209871776289
2,98,1.001531864035829,-0.004600584568521908,0.003909786062022571
2,99,1.0004328199991663,-0.010823547720904159,0.01616522716272381
2,100,0.9996418096347626,-0.012211521832452754,0.021799127758379878
2,101,1.003792855839216,0.0515297177332607,0.005627102917474403
3,1,1.00098677659218,3.5250232998037696e-5,-5.96172298035891e-6
3,2,1.0009885088374806,8.966140431389414e-5,-4.231848350053201e-5
3,3,1.0009879899099803,0.00011928891856979996,-0.00011071491436563114
3,4,1.000987451478665,0.00014398811998966914,-0.00020365329907464416
3,5,1.0009870797740466,0.00017356877401100842,-0.0003168674490302513
3,6,1.0009866616755247,0.00020855811404798754,-0.000452913748664786
3,7,1.0009861159823588,0.00024820984672012223,-0.0006156653483708143
3,8,1.0009854535938663,0.00029241396874224587,-0.0008082706631182713
3,9,1.0009846474273636,0.00034028530901622896,-0.001033101285489923
3,10,1.000983683003672,0.00038953155876053245,-0.0012912561476876732
3,11,1.0009825709692164,0.00043635279742120354,-0.0015812287818518513
3,12,1.0009813602631603,0.0004755281390751203,-0.0018982865391254625
3,13,1.0009801545689685,0.0005006937521328545,-0.0022335873465229622
3,14,1.0009791238280468,0.0005047714003976786,-0.002574304803339733
3,15,1.0009785078978268,0.0004805416800814972,-0.002903732140712501
3,16,1.0009786082692853,0.0004212823287734958,-0.0032023783355455042
3,17,1.0009797669048346,0.000321336302084839,-0.0034488891394490774
3,18,1.0009823365682622,0.00017648407391553258,-0.003621514165165777
3,19,1.0009866467079032,-1.5920167514338985e-5,-0.003698931260476093
3,20,1.000992973265221,-0.00025697358390405853,-0.003661171502707865
3,21,1.0010015128157108,-0.0005462688742316912,-0.003489795301939032
3,22,1.0010123620630562,-0.0008818126130929077,-0.003168315887729053
3,23,1.0010254939456278,-0.001259749273990007,-0.0026823341350261124
3,24,1.0010407251743385,-0.0016739404006230652,-0.0020203649984219725
3,25,1.0010576708103842,-0.002115574863336747,-0.0011746939430865785
3,26,1.0010756966887941,-0.0025730404837313813,-0.0001428352930765132
3,27,1.0010938875116004,-0.0030322410557926207,0.001071375187771718
3,28,1.001111048876314,-0.003477409652549191,0.002456728053157101
3,29,1.0011257583908324,-0.003892346775411145,0.003994578752119582
3,30,1.0011364713482926,-0.004261907340900122,0.005659337186571106
3,31,1.0011416786815757,-0.004573480125607751,0.0074201339280676026
3,32,1.001140084072332,-0.004818157100051012,0.009242814892273936
3,33,1.0011307685362916,-0.00499135676300805,0.011092495420039648
3,34,1.0011132967239382,-0.00509280854248198,0.012935642754721526
3,35,1.0010877582053124,-0.005125983110596922,0.014741991087803281
3,36,1.001054729325385,-0.005097160023762005,0.016485510196339214
3,37,1.0010151902472808,-0.005014365981093536,0.018145060618156374
3,38,1.0009704008944558,-0.00488637132550854,0.019704205203396004
3,39,1.000921782933748,-0.004721872823324263,0.021150975895850056
3,40,1.000870799268384,-0.00452890705262882,0.022477092966834943
3,41,1.0008188704540923,-0.004314496779137045,0.023677422573754825
3,42,1.000767300127195,-0.0040844873293676845,0.02474909441276737
3,43,1.0007172425438182,-0.0038435336898496996,0.02569100914138441
3,44,1.0006696721536683,-0.0035951817844800116,0.02650309243059889
3,45,1.0006253883828489,-0.0033420155243647056,0.02718597921562702
3,46,1.0005850110799577,-0.0030858263403647002,0.02774046511133426
3,47,1.0005490029807804,-0.0028278005440030545,0.028167364850459613
3,48,1.0005176748486568,-0.002568692746571459,0.028467150396517035
3,49,1.0004912118532157,-0.0023090019109539635,0.028639935526426574
3,50,1.0004696799294126,-0.0020491189837045015,0.028685289563212226
3,51,1.000453049331695,-0.001789480063838165,0.028602295903460036
3,52,1.0004412003487269,-0.0015306829906228485,0.028389567627929286
3,53,1.0004339418020862,-0.0012736183197396206,0.028045330837885397
3,54,1.0004310182095095,-0.0010195502522017826,0.02756772451589207
3,55,1.0004321225894306,-0.0007702192061272455,0.026954844271991824
3,56,1.0004369086906133,-0.0005278683639149325,0.026205471781900202
3,57,1.0004449965554352,-0.0002952944364236849,0.02531895428094155
3,58,1.000455992899089,-7.578235986743948e-5,0.024296563746342426
3,59,1.0004694852299172,0.00012693446179944153,0.023140951035114866
3,60,1.0004850715679685,0.0003088763610337422,0.021858361850838257
3,61,1.0005023364090837,0.0004659794411402485,0.020457172493511713
3,62,1.0005208898149356,0.0005944520154173459,0.018951180623296236
3,63,1.0005403204745735,0.0006910407388967711,0.017356436078577633
3,64,1.0005602454979325,0.0007534815882043106,0.015695821152199738
3,65,1.000580245105471,0.0007807507688831347,0.013993176111194557
3,66,1.0005999300895043,0.0007734495304733533,0.012279475786955022
3,67,1.0006188745776476,0.0007338630231497364,0.010583343575165167
3,68,1.0006366973609133,0.0006660491418319502,0.008939427461725087
3,69,1.0006530217893117,0.0005755087901063992,0.00737491846594226
3,70,1.0006675616831011,0.00046892763934389397,0.0059210050711206875
3,71,1.0006800969296727,0.00035367201953526243,0.00459596134994152
3,72,1.0006905003458544,0.00023711787627037176,0.003420664062374647
3,73,1.0006987938114307,0.00012558119718175786,0.0023989905833613333
3,74,1.0007051435849896,2.4104240716876396e-5,0.0015377229677889567
3,75,1.0007097577488668,-6.247627453326387e-5,0.0008262205364629463
3,76,1.0007127537539744,-0.00013000292000875667,0.0002597311461235526
3,77,1.0007145473848973,-0.00017896081502104616,-0.00018430413085524408
3,78,1.0007157578500914,-0.00021596834362174524,-0.0005191330683641842
3,79,1.0007167056075037,-0.0002470269260441451,-0.0007677877622738615
3,80,1.000716967596105,-0.00026883248417778835,-0.0009353882674543341
3,81,1.0007161059582756,-0.0002686676968736448,-0.0010424536732080584
3,82,1.000714209783138,-0.00023171109357244407,-0.0011078173062931576
3,83,1.0007118353830238,-0.0001482437577161488,-0.0011782477472029014
3,84,1.0007094085004116,-1.611825224193571e-5,-0.0012954763162405785
3,85,1.0007069938706634,0.00016011744727994795,-0.0015130456705409162
3,86,1.0007042735864229,0.000367665250296818,-0.0018603712780970287
3,87,1.0007011199270357,0.000579414383427729,-0.0023586563390992966
3,88,1.0006964257456905,0.00076025297338476,-0.0029845820198749367
3,89,1.000692131830407,0.0008680544778317681,-0.0037036282600434994
3,90,1.0006880046033704,0.0008513442727179332,-0.0044180201989086005
3,91,1.0006862144147766,0.0006772863330437839,-0.0050468961049518835
3,92,1.0006912638708447,0.00025364881766502367,-0.00544643933141069
3,93,1.000686159846366,-0.00040026263818773706,-0.005568335222545832
3,94,1.00074434082934,-0.001196156911319824,-0.005542832960561726
3,95,1.000752696626313,-0.0025598889040200174,-0.004527716469938093
3,96,1.000623018889659,-0.003718428418081071,-0.0034418066076094154
3,97,1.0010776603449378,-0.005394021026665049,-0.0029903321081993007
3,98,1.0007028374042641,-0.01245828344931881,0.0035667782749521796
3,99,0.9995352039150203,-0.0169704589992526,0.005935815257704225
3,100,1.0006027375579636,-0.0027275665499200403,-0.000621767737498614
3,101,1.000522617625566,0.05519255876711416,-0.0019238965369924143
4,1,1.000986425492701,5.636421959669026e-5,-7.224170627840728e-6
4,2,1.0009883740848793,0.0001486320298876409,-4.950991040754647e-5
4,3,1.0009881090442834,0.00021156709910211021,-0.000130243434484013
4,4,1.0009876054043343,0.0002629498504785013,-0.0002441309276183315
4,5,1.0009870672869714,0.00031671111449946434,-0.000385069843016751
4,6,1.000986670284014,0.0003793945972698121,-0.0005506395906697898
4,7,1.000986235210056,0.0004515554926652979,-0.0007430751117879515
4,8,1.0009856839516065,0.0005322032975071357,-0.000964689466202907
4,9,1.000985038790352,0.0006196271991927142,-0.001214924604326705
4,10,1.0009843062288022,0.0007101021548046539,-0.001490498799573323
4,11,1.0009835165315897,0.0007976561952086756,-0.0017842073027256637
4,12,1.0009827368108322,0.0008745528010381725,-0.0020846497348805367
4,13,1.000982076173713,0.0009320865084036183,-0.0023759137100019035
4,14,1.0009816913385672,0.0009615890287665101,-0.0026386976609614134
4,15,1.0009817797178526,0.0009554492129257247,-0.002851383635991023
4,16,1.00098256516269,0.0009079310516494067,-0.002992103100600655
4,17,1.0009842751653228,0.0008155617364568245,-0.003040020729800066
4,18,1.000987119466629,0.0006769905368140634,-0.0029767338053085703
4,19,1.00099127308466,0.0004924379109994645,-0.0027862797419143178
4,20,1.000996872209959,0.00026304918826042944,-0.0024550643395339798
4,21,1.0010040173001682,-9.473106838759235e-6,-0.0019708546757697108
4,22,1.0010127761215888,-0.00032268072902579545,-0.001322558160613282
4,23,1.0010231669246936,-0.0006725996756135549,-0.0005001096352399728
4,24,1.0010351114566651,-0.0010526018841652146,0.0005041650160724457
4,25,1.0010483598308257,-0.0014523873272187916,0.0016939959467243866
4,26,1.0010624070393248,-0.0018575373375924345,0.0030667744724518485
4,27,1.0010764309996623,-0.0022499427681941034,0.004612043979002355
4,28,1.0010892761270862,-0.0026091597280215022,0.0063103433086932935
4,29,1.0010995168483179,-0.0029145233628293855,0.008133933452277326
4,30,1.001105596475127,-0.003147596565255098,0.010048324172110651
4,31,1.0011060328230303,-0.0032944004714604643,0.012015401767723316
4,32,1.0010996190604753,-0.003346898372025246,0.013996341442829003
4,33,1.0010855956711,-0.003303470190593647,0.015954859487554967
4,34,1.0010637260218522,-0.003168396098419367,0.017859088943365718
4,35,1.0010343095461627,-0.00295063264330438,0.01968317374946719
4,36,1.0009980988876015,-0.0026622349103699165,0.02140730661608821
4,37,1.000956204455418,-0.002316779834644836,0.02301779074414415
4,38,1.0009099487673416,-0.0019280101164782545,0.024505950281587478
4,39,1.000860765501782,-0.00150882951958948,0.025867586350328486
4,40,1.0008100746327384,-0.0010706509513199497,0.027101616233895367
4,41,1.0007592298376393,-0.000623070101749712,0.02820957729364861
4,42,1.000709440180862,-0.00017377836740826183,0.029194418386079453
4,43,1.0006617691711848,0.0002713445123578739,0.03006028159889849
4,44,1.0006170929381222,0.0007080397339304828,0.030811534277031042
4,45,1.00057613268482,0.0011334175545271601,0.03145282566069636
4,46,1.0005394303369997,0.0015456960980162473,0.031988304098438405
4,47,1.0005073955264938,0.001943938442500824,0.03242187004734727
4,48,1.000480284543583,0.002327816508047254,0.03275649343987249
4,49,1.0004582498585977,0.002697388626636839,0.03299458524985691
4,50,1.0004413157263106,0.0030529099678707587,0.03313734808880879
4,51,1.0004294248229604,0.003394649272061579,0.033185215338864885
4,52,1.000422409645659,0.003722734916597851,0.03313720391809888
4,53,1.0004200352066246,0.004036991884219121,0.032991403743579346
4,54,1.000421969236465,0.004336809385891879,0.03274435236190747
4,55,1.0004278225395635,0.004620985106911265,0.03239159448826519
4,56,1.0004371237338878,0.00488761776771966,0.031927172156445235
4,57,1.000449360241671,0.005133970362332342,0.031344307497657216
4,58,1.00046396482843,0.0053564259480994355,0.030635200571577283
4,59,1.0004803593726443,0.005550422057395551,0.029791888013916783
4,60,1.0004979590430472,0.005710551969383988,0.028806635791037306
4,61,1.0005162155504288,0.0058306629587544494,0.027672921645869042
4,62,1.0005346381397524,0.005904208686224007,0.02638672929427342
4,63,1.000552821903785,0.00592460199034582,0.024947299903039125
4,64,1.0005704734266294,0.005885867598986109,0.02335949617000099
4,65,1.0005874002743484,0.005783234617339029,0.02163345053101787
4,66,1.0006035270567541,0.005613966055298826,0.019787881160257037
4,67,1.0006188262440208,0.005377953267102462,0.017847268490218313
4,68,1.0006333300336847,0.00507835346228687,0.015845837590031
4,69,1.000647022077762,0.004721760637123096,0.013820900682420048
4,70,1.0006598852043533,0.00431820652108648,0.011817464253391089
4,71,1.0006717852126075,0.0038805873929571156,0.009877434925283882
4,72,1.0006825830638213,0.0034238742446177904,0.008045722616287623
4,73,1.0006920565107804,0.0029636731843279145,0.006356343622943446
4,74,1.0007001126927066,0.0025148779242592607,0.004840924033720152
4,75,1.0007066816647958,0.00209107212086457,0.0035145474521686695
4,76,1.0007117325534913,0.0017046105694828242,0.002389226089441446
4,77,1.0007151679886552,0.0013636662676213616,0.001459524164022792
4,78,1.0007173567584788,0.0010671879558499782,0.0007151767990948354
4,79,1.0007189517078507,0.0008067626724574021,0.00013095675135545623
4,80,1.0007202591515099,0.00058029631155445,-0.00030959263856230294
4,81,1.0007207264738631,0.00040334018389537844,-0.0006248360960039814
4,82,1.000719848178048,0.00030547459084596744,-0.0008326189564268372
4,83,1.0007179174063294,0.00031366167109182785,-0.0009775838471872604
4,84,1.000715773271678,0.0004374012010830821,-0.0011184497035886239
4,85,1.0007142297813605,0.0006656720114698506,-0.0013261918596151252
4,86,1.0007134777384021,0.0009620307480748269,-0.001647519679828903
4,87,1.000712382864165,0.0012669858297039566,-0.0020985142992411684
4,88,1.0007115554940693,0.0015059796250109416,-0.0026458846577854605
4,89,1.0007092473047672,0.0015954060250032015,-0.0032053917317973126
4,90,1.0007087841018494,0.0014692727147495464,-0.0036853721924757876
4,91,1.0007082915096,0.0010449734738377592,-0.003933073094434581
4,92,1.0007006684778499,0.0003817179514846621,-0.003939094595003536
4,93,1.0007404865540017,-0.0004810969591565597,-0.00381550350677419
4,94,1.0007171396609622,-0.0019644462941754057,-0.0029880207113999933
4,95,1.0006786662112406,-0.0032362228352104823,-0.0025082400899618493
4,96,1.001004314527803,-0.004547590543831406,-0.0021183143213928755
4,97,1.0006039940267524,-0.009868277537859625,0.002498502355732941
4,98,1.0000731444547113,-0.014355266052370736,0.0030163614209872095
4,99,1.000912300871862,-0.010675299330398787,-0.0020742233183060213
4,100,1.001301035909234,-0.0015159811565398466,-0.002466291064570482
4,101,0.9997998808238362,0.052089827342592515,-0.000550101323895973
5,1,1.000986167504728,7.825888579050976e-5,-8.129706433808316e-6
5,2,1.0009882923106646,0.00021405043584767276,-5.6059000514419805e-5
5,3,1.0009880031384586,0.0003144369719536398,-0.00014714318909780048
5,4,1.0009876545611998,0.00039671652645647935,-0.00027365130530665005
5,5,1.0009871648111344,0.0004753086096515043,-0.0004293781491996279
5,6,1.0009866797846128,0.0005599071307149722,-0.0006095310181027937
5,7,1.0009862947698256,0.0006538753873530823,-0.000811206260385147
5,8,1.000985854800765,0.0007540152534177528,-0.001033352986715525
5,9,1.0009852998664894,0.000853911259566444,-0.001271825871638343
5,10,1.0009846607237987,0.0009447368203483707,-0.0015180398274070872
5,11,1.000983953845679,0.0010148325313212602,-0.0017588887780987622
5,12,1.0009832150800102,0.0010506080785143866,-0.001977659194262802
5,13,1.0009825143880409,0.00103821897621999,-0.0021544910896451695
5,14,1.0009819592926144,0.0009653178914234784,-0.0022685942652541247
5,15,1.0009816942843783,0.0008224758667493679,-0.002299744420805563
5,16,1.0009818931841061,0.0006038905020820489,-0.0022304312390220783
5,17,1.0009827464548675,0.00030719744583866004,-0.0020461403506987367
5,18,1.000984456548302,-6.748382219015498e-5,-0.0017354110668522825
5,19,1.0009872421604993,-0.000518796528016746,-0.0012879672581298759
5,20,1.0009913563573243,-0.00104500987428358,-0.0006934291612696431
5,21,1.00099709743806,-0.001643933092076345,6.0353616140035994e-5
5,22,1.001004791026076,-0.0023116876354620794,0.0009866831342540392
5,23,1.001014718199854,-0.0030406882924620374,0.002098615193485387
5,24,1.0010269917425139,-0.0038175948953296708,0.003405223692765991
5,25,1.0010414116412354,-0.004622114790616938,0.00490828047740042
5,26,1.00105733546739,-0.005427265137217937,0.006598540694997593
5,27,1.001073622401592,-0.0062013052294126675,0.00845461610811319
5,28,1.0010886735619018,-0.006911060765490928,0.010443070342294374
5,29,1.001100610274562,-0.007525951682079405,0.012521808531924389
5,30,1.0011075187159855,-0.008021728264803315,0.01464390809954243
5,31,1.0011077414818126,-0.008383044071139475,0.016763010460649114
5,32,1.0011000804945642,-0.008604364941354484,0.01883685193220039
5,33,1.001083946010302,-0.008689289423339195,0.020830705956326617
5,34,1.0010593451793715,-0.00864869839086628,0.022717972440086054
5,35,1.001026848305486,-0.00849836903320872,0.024480849617990564
5,36,1.0009874280189859,-0.008256566009507946,0.02610864659304482
5,37,1.0009423660302321,-0.00794200986255698,0.027597181444264762