TITLE="CMs_NON_Orthogonal Re = 10000.0"
VARIABLES = X,Y,Rho,U,V
ZONE
I = 101	J = 101
F=POINT
1,1,1.0002182682575222,1.707259718480053e-5,-1.5181103284618563e-5
1,2,1.0002264133381533,3.687892523935176e-5,-0.00010654217049039639
1,3,1.0002244291712628,3.352743022174121e-5,-0.0002088740444628118
1,4,1.0002225809879375,3.536393860023677e-5,-0.00031156117436721004
1,5,1.0002204019513192,4.130982426065561e-5,-0.0004237915353065794
1,6,1.0002171446275745,4.6627916054825636e-5,-0.0005564370751481326
1,7,1.0002131168778832,5.1061901682527523e-5,-0.0007002043072759674
1,8,1.0002088032159855,5.6089428400418057e-5,-0.0008612004611741064
1,9,1.000204252511896,6.167371370900158e-5,-0.001035505228301037
1,10,1.0001995280003237,6.730631468671979e-5,-0.0012300308740558318
1,11,1.0001948234554667,7.24643571649059e-5,-0.0014392515942253756
1,12,1.000190462743883,7.676692264731844e-5,-0.0016674399532296885
1,13,1.0001867958312962,7.94936500601173e-5,-0.0019075890247192233
1,14,1.0001843177609597,8.005131348913126e-5,-0.0021605866061079186
1,15,1.0001835879149816,7.76409457505935e-5,-0.0024167014846337444
1,16,1.0001853161373173,7.168888503438055e-5,-0.0026724321109317453
1,17,1.000190245804214,6.152382611188479e-5,-0.002914790475801917
1,18,1.0001992195345466,4.678513510376371e-5,-0.00313600763576358
1,19,1.0002130344277287,2.7177423530816857e-5,-0.0033206495748130034
1,20,1.0002324656428052,2.8135563065841717e-6,-0.0034585934566424034
1,21,1.000258076358393,-2.6013876161628702e-5,-0.0035345892510942104
1,22,1.0002902015962107,-5.866511031567738e-5,-0.003539539194496674
1,23,1.0003287767316273,-9.441390637257346e-5,-0.0034615028359114034
1,24,1.0003733667419854,-0.00013241130159396457,-0.003295099506954383
1,25,1.0004230889202286,-0.0001718756748716987,-0.0030331792216700577
1,26,1.0004767034253088,-0.00021203843079857726,-0.00267473183285071
1,27,1.0005325946898627,-0.00025217490323797863,-0.0022172245057011596
1,28,1.0005888565597076,-0.0002914858147397757,-0.0016638919519982357
1,29,1.0006432884580048,-0.00032902260666549724,-0.0010170164077991817
1,30,1.0006934778631247,-0.0003635861760696865,-0.00028524730076869524
1,31,1.0007368745026033,-0.00039368977488713587,0.0005223029172405135
1,32,1.0007709600884418,-0.000417602408618009,0.0013887582054606445
1,33,1.000793485223998,-0.0004334878692151504,0.002295422574947235
1,34,1.0008027475232972,-0.00043965354424685773,0.00321527839441302
1,35,1.0007979226136166,-0.0004348238544361494,0.00412024150078033
1,36,1.0007792588150068,-0.0004184316304807323,0.004976071176061266
1,37,1.0007482268464563,-0.000390761459751903,0.0057514547114326815
1,38,1.0007073337375607,-0.0003530286280737825,0.00641363407097818
1,39,1.0006599140243428,-0.00030719994555480527,0.0069385352405452886
1,40,1.0006095732067712,-0.00025590222938652525,0.007305217598547565
1,41,1.0005598397462911,-0.00020207509659083664,0.0075060862586561325
1,42,1.000513534867864,-0.00014897358451382365,0.007538562838568614
1,43,1.0004726097846826,-9.964244402701976e-5,0.0074157397462237306
1,44,1.0004377294165443,-5.6993572131040604e-5,0.007153878399854768
1,45,1.0004086161688788,-2.2795574262431635e-5,0.006784474218129986
1,46,1.0003840695325705,1.9406966182573626e-6,0.0063348972870988715
1,47,1.000362832500318,1.8197611068663493e-5,0.005844322981442837
1,48,1.0003436283262361,2.7390050815582702e-5,0.005335711624409883
1,49,1.0003258761437461,3.240422082151047e-5,0.004842227061816579
1,50,1.0003091605768755,3.499902075781994e-5,0.004370325660464121
1,51,1.0002936594049678,3.72316704829485e-5,0.003942512138631231
1,52,1.0002793618202657,3.9114322597230665e-5,0.0035487106992960257
1,53,1.0002665988128117,4.095615394393632e-5,0.0032056432911262557
1,54,1.0002553069592968,4.1726556119156374e-5,0.0028928311738125696
1,55,1.0002456904840933,4.155274733108476e-5,0.0026271493923920343
1,56,1.0002375235675158,3.9888137041735065e-5,0.0023825251199446167
1,57,1.0002308670624487,3.741603643541114e-5,0.0021791636279865673
1,58,1.0002253913540389,3.396106365167304e-5,0.0019875248386886026
1,59,1.0002210968494294,3.029725852903882e-5,0.0018321649557299282
1,60,1.0002176369712095,2.617147627182065e-5,0.0016805740092762631
1,61,1.0002150189289176,2.2234253786765045e-5,0.001561752304252272
1,62,1.0002129257356396,1.8093022797681624e-5,0.0014401549927837351
1,63,1.0002113995356192,1.4314253245803695e-5,0.0013491518707238253
1,64,1.0002101660193472,1.0416205161147643e-5,0.001250009936486231
1,65,1.000209306135893,6.931761943297951e-6,0.0011804123202337623
1,66,1.000208583802908,3.3219330520025038e-6,0.0010982762887887575
1,67,1.0002081120155468,1.117213706805909e-7,0.00104556329492518
1,68,1.0002076825900783,-3.274337800926472e-6,0.0009766830267644107
1,69,1.0002074317145335,-6.298361922152489e-6,0.0009378581817835583
1,70,1.0002071685987872,-9.55279313822543e-6,0.0008798454695752295
1,71,1.0002070453312957,-1.2471236774389803e-5,0.0008531340320789339
1,72,1.0002068798806034,-1.565209055079941e-5,0.0008047028908475963
1,73,1.000206835636983,-1.8496813212905442e-5,0.0007893405941293361
1,74,1.0002067324184394,-2.161051598802651e-5,0.0007501489325328734
1,75,1.000206742643747,-2.4369525376719363e-5,0.0007462809939910764
1,76,1.000206682441497,-2.7392557418037795e-5,0.000716889808876852
1,77,1.000206733673372,-3.004509597968569e-5,0.0007255899408773992
1,78,1.0002067031729869,-3.297399213400605e-5,0.0007075491186801568
1,79,1.0002067828394925,-3.556405771000247e-5,0.0007309871020003307
1,80,1.0002067622183004,-3.85073482013067e-5,0.0007271068654303692
1,81,1.0002068532222006,-4.1254416864516656e-5,0.0007689103291052253
1,82,1.0002068165505016,-4.45628447129925e-5,0.0007837133495383507
1,83,1.0002069013637085,-4.804374403522533e-5,0.0008495553793796426
1,84,1.0002067877301366,-5.255639197962665e-5,0.0008902197346377259
1,85,1.0002067676001651,-5.777123284089929e-5,0.0009891141114529466
1,86,1.0002065158986828,-6.467704029257192e-5,0.0010668365242224977
1,87,1.0002063183266108,-7.274256672686936e-5,0.001212281319335576
1,88,1.0002060232026577,-8.401034681705725e-5,0.001344166196275887
1,89,1.0002050333723211,-9.749425187178577e-5,0.0015592077840984521
1,90,1.0002038253689283,-0.00011580197717569493,0.001775978373754564
1,91,1.0002012620725045,-0.0001359287172838813,0.002097345815124604
1,92,1.0002013318452996,-0.00015981767350554146,0.0024355055988436085
1,93,1.0002004467607508,-0.00021007059999462945,0.002926690123933152
1,94,1.0001789938195917,-0.00024684781163107606,0.003498854355771608
1,95,1.0001771434185398,-0.000328394541882023,0.004298744624266409
1,96,1.0001650583429689,-0.0002974910693059908,0.005138247160896918
1,97,1.0002266941768312,-0.0007782693420697445,0.006589443190540024
1,98,0.9997331771854515,-0.0006676034606158721,0.008771384073766472
1,99,1.0001210168977657,0.0012777507584190739,0.008043079051788
1,100,1.0011248072216745,-0.007678320706404669,0.015717386998749253
1,101,0.9960840752692446,0.02631346469240081,0.013812612496054224
2,1,1.0002109883403856,0.0001116098392258657,-4.055707713756019e-5
2,2,1.0002213779356521,0.0002352411293873142,-0.0002547245898680921
2,3,1.000215804318369,0.00023889660928511718,-0.0005551982735281907
2,4,1.000211689698225,0.0002443128252583016,-0.0008598455080807289
2,5,1.0002083914401065,0.0002784476783732531,-0.0011805138167024106
2,6,1.0002036266691547,0.00031263335564315066,-0.0015430812780885825
2,7,1.0001978311410282,0.00034128821175874647,-0.00193759564330199
2,8,1.000191721636626,0.0003723739363907247,-0.002365660724857549
2,9,1.0001853207519287,0.0004073527627723197,-0.002826155764741803
2,10,1.0001786366593683,0.000443214296927563,-0.003325669543191827
2,11,1.0001720323630825,0.0004776851698938719,-0.0038582910031873564
2,12,1.0001659549450534,0.0005087467627661944,-0.004423786139764029
2,13,1.0001609403512741,0.0005335421345897004,-0.005010889573739337
2,14,1.0001576274967434,0.000548533870881021,-0.005612076471959509
2,15,1.000156801458891,0.0005497905619651412,-0.0062082990623233
2,16,1.0001593322366094,0.0005332767797949254,-0.006782892340795969
2,17,1.0001661733453748,0.0004952580663453947,-0.007308885400327499
2,18,1.0001782912502366,0.0004328614810159234,-0.007762282404258396
2,19,1.0001965990402706,0.0003446193397761272,-0.008112291073170528
2,20,1.0002218401571468,0.00023088273936510057,-0.008334134308051367
2,21,1.0002544671940181,9.381391776959129e-5,-0.008401196274719832
2,22,1.00029455575383,-6.293399492406012e-5,-0.00829597015743186
2,23,1.00034174781892,-0.00023487951598027311,-0.008002091391944651
2,24,1.0003952811544359,-0.0004173086859146522,-0.0075125244355540586
2,25,1.000454013810037,-0.0006057971817982491,-0.006821068176645582
2,26,1.0005164975324015,-0.0007962984784932684,-0.005928915390556398
2,27,1.0005809873018099,-0.0009850342500220906,-0.004836761214825959
2,28,1.0006454721069047,-0.001167991973461259,-0.003551464540807476
2,29,1.0007076550492384,-0.0013404332904444025,-0.002079670477241181
2,30,1.0007649835013834,-0.001496285910938711,-0.00043549415671441974
2,31,1.0008147051930258,-0.001627879871035598,0.0013644246014205372
2,32,1.0008540140966318,-0.0017259839322771766,0.00329251408996347
2,33,1.0008802917180433,-0.0017805192219629551,0.005315244485268108
2,34,1.0008914035478027,-0.0017817529462231252,0.007385736073294744
2,35,1.0008860623047797,-0.0017218926762108382,0.009451162158926822
2,36,1.0008640821774055,-0.001596655695081254,0.01144790147245827
2,37,1.00082658288064,-0.0014064863125473322,0.013312310303055729
2,38,1.0007759046119062,-0.0011571109734539076,0.014977503322627117
2,39,1.0007154404648846,-0.0008592813279637052,0.016386074065007784
2,40,1.0006491842142304,-0.0005279004414023682,0.0174857320587311
2,41,1.0005813599576763,-0.00018081042396678122,0.018242315221346138
2,42,1.0005159133388901,0.0001624244385669383,0.01863231531646791
2,43,1.0004561986637268,0.0004817717029378357,0.018656742675379576
2,44,1.0004045746660089,0.0007583428851833376,0.018329736229349768
2,45,1.0003622255787448,0.0009765594211402543,0.01769391509247502
2,46,1.0003290508175895,0.0011267180850193387,0.016801062049300434
2,47,1.0003039033564707,0.0012068285609355364,0.015726986120635725
2,48,1.000285016544389,0.00122284810618005,0.01453961463477037
2,49,1.0002705339544358,0.0011867466242197072,0.013317510239208694
2,50,1.0002589333398486,0.0011134812247839485,0.01210983395697748
2,51,1.0002491595605303,0.0010178460975476542,0.010970091706280622
2,52,1.0002406531519237,0.0009125506069970025,0.009912323495607772
2,53,1.0002331330978456,0.0008071154716710645,0.008963252772922458
2,54,1.000226562063063,0.0007079506282045541,0.008109532792013251
2,55,1.000220895886794,0.0006184568929625692,0.007364289198146589
2,56,1.000216182326477,0.000539958518619154,0.006700080587198957
2,57,1.0002123289663976,0.0004721678852200335,0.006128092590672239
2,58,1.0002093338319318,0.0004142310120492809,0.005615348628799633
2,59,1.0002070225252468,0.0003648491445117988,0.005176984864956527
2,60,1.0002053713843728,0.0003229243208997678,0.004777828116606102
2,61,1.0002041696914399,0.0002872506218490594,0.004438733106509554
2,62,1.0002034200603827,0.0002569617345199957,0.004122890956735846
2,63,1.0002029105571992,0.00023108564731269104,0.003856991980677868
2,64,1.0002026946351972,0.00020899284442143959,0.003602278953116826
2,65,1.0002025687944152,0.00018991545703621668,0.0033909772733343975
2,66,1.0002026398040176,0.00017342067943782109,0.0031818882319832754
2,67,1.0002027065381258,0.00015890443429369914,0.0030124353659753355
2,68,1.0002029228468647,0.00014608501939745387,0.0028385127671803046
2,69,1.0002030799444013,0.00013447490088908405,0.0027024803416792914
2,70,1.000203372282731,0.0001238912890875659,0.0025569369195783957
2,71,1.0002035742963469,0.00011391368024181254,0.0024490157717253175
2,72,1.000203917108911,0.00010441129866266751,0.002327710932234842
2,73,1.0002041512567732,9.499081195283457e-5,0.002244863819442523
2,74,1.0002045432298776,8.553695219511772e-5,0.0021456166122347884
2,75,1.0002048137722768,7.565290578707048e-5,0.0020865480730186447
2,76,1.00020526559907,6.5214162796195e-5,0.0020087426913814642
2,77,1.0002055852612743,5.379487723802196e-5,0.0019736316605066277
2,78,1.0002061144354069,4.1225264466503234e-5,0.001918060060159594
2,79,1.0002065005366072,2.7012290173388666e-5,0.0019085437201426289
2,80,1.0002071268514867,1.0922431343636986e-5,0.0018775429909950187
2,81,1.0002075971493716,-7.583908067109316e-6,0.0018969825204845933
2,82,1.0002083527741523,-2.8883103195706623e-5,0.0018947480595849745
2,83,1.0002089343945972,-5.374077346303464e-5,0.001948758763374072
2,84,1.000209873315576,-8.288364359685283e-5,0.0019823145610859284
2,85,1.0002105702128967,-0.00011723362507750676,0.002080418573823262
2,86,1.0002117140249651,-0.00015733107570774647,0.0021610591719610707
2,87,1.0002126600957983,-0.00020559196514724677,0.002317360761316137
2,88,1.0002141541603105,-0.00026389366391864685,0.00246238040931419
2,89,1.0002157450420606,-0.0003395959693323526,0.0027025608413738474
2,90,1.0002166867866074,-0.00042842345183468364,0.002948554391818899
2,91,1.0002195198448676,-0.0005338396307993622,0.0033115435247844764
2,92,1.0002204043993868,-0.000670436849651345,0.003707793142053005
2,93,1.0002277515292803,-0.0008619182537074087,0.004249434335999686
2,94,1.0002278293962081,-0.001170103547855508,0.00494765837557677
2,95,1.0002305829615152,-0.001334968059727604,0.005812435701008355
2,96,1.0002425494237914,-0.002084043677066913,0.007240084255934939
2,97,1.0001157132749374,-0.0027034538201557387,0.00895745473621826
2,98,1.0007038461289492,-0.0012978650727168543,0.008306206941597739
2,99,0.9994728425114074,-0.007661430633207047,0.017389577847291747
2,100,0.9993447618212405,-0.012157433861381345,0.02189236507444345
2,101,1.0034543187991778,0.05096304452249955,0.00572196524543034
3,1,1.0002107132480516,0.0002468783203651835,-4.8177090748148514e-5
3,2,1.0002252498965651,0.000573578690607846,-0.0003234274425035267
3,3,1.0002186439600838,0.0006366607838994065,-0.0007650775060546143
3,4,1.0002118010832888,0.0006417072175464067,-0.0012455090578555837
3,5,1.0002085470374227,0.0007035404941663194,-0.0017286623724787383
3,6,1.000204823966786,0.0007787659096527315,-0.0022439758882088568
3,7,1.0001994066339648,0.0008409735336487981,-0.0027950149808992496
3,8,1.000193518118587,0.0009043995399334757,-0.0033788039654384246
3,9,1.000187533642976,0.0009747226380236951,-0.003991569814441782
3,10,1.000181381279264,0.001045096865301508,-0.004637551578271763
3,11,1.000175291203016,0.001108764563641983,-0.005309740002535069
3,12,1.0001697234286773,0.0011601541196540573,-0.0060033548544043795
3,13,1.0001651411604806,0.0011921627521902713,-0.006703420434246201
3,14,1.0001621067020185,0.0011963570498720187,-0.00739660383300941
3,15,1.0001612560907076,0.001163763358084538,-0.008058416283528273
3,16,1.0001633826833438,0.0010859736037553461,-0.008665402767436272
3,17,1.0001693305171313,0.000956118960399366,-0.009184811886464738
3,18,1.0001800573759374,0.0007704121497422137,-0.00958819512786549
3,19,1.000196422700911,0.0005290546062611599,-0.009843366199202428
3,20,1.0002191880115658,0.0002367418051174464,-0.009928345501286332
3,21,1.0002487449296333,-9.827029894078979e-5,-0.009822728548574477
3,22,1.0002851826362749,-0.00046551261458199154,-0.009519093992207715
3,23,1.0003281108313267,-0.0008542646879896429,-0.009011502902477
3,24,1.0003768562641835,-0.0012548004100511544,-0.008304586165234589
3,25,1.0004303545051132,-0.0016592796431799492,-0.007400606882866998
3,26,1.0004873503021001,-0.0020615190408114956,-0.006308826783740018
3,27,1.0005462700737828,-0.002456428392835911,-0.005032998375051808
3,28,1.0006053520519114,-0.0028387126603620434,-0.00358249435630089
3,29,1.0006625350891936,-0.003201631549740573,-0.00196079467417592
3,30,1.0007155479673742,-0.0035355680361363493,-0.0001788248141891443
3,31,1.0007619279546764,-0.003827230927590425,0.0017555003541072135
3,32,1.0007991425694531,-0.004059523774464045,0.0038221074258619836
3,33,1.0008248621419609,-0.004212799815084354,0.005999379932810592
3,34,1.0008371304373531,-0.004267178350264386,0.008249426570610157
3,35,1.0008348567820742,-0.004205705960156098,0.010531439078474947
3,36,1.0008178231221498,-0.004017419446733026,0.012789680005428414
3,37,1.0007871191571351,-0.0036996137450966055,0.014970144284952793
3,38,1.0007446914513907,-0.0032587992520143015,0.017010229553516176
3,39,1.0006935409373947,-0.002710151881699373,0.0188560120135759
3,40,1.0006368277631743,-0.0020761607108849894,0.020450782129053005
3,41,1.000578016497502,-0.0013847357204297577,0.021750823705514684
3,42,1.0005199381894636,-0.0006680315539347522,0.02271221481664865
3,43,1.0004652426415481,3.8706643904734326e-5,0.023306744737214724
3,44,1.0004156556748411,0.0006979639422268115,0.023509864169914733
3,45,1.000372635560777,0.0012729285864563702,0.023321005824025992
3,46,1.0003366268553857,0.0017318993247866475,0.02275294945046072
3,47,1.0003077536983036,0.0020548257887280544,0.021853205144879102
3,48,1.0002851581138636,0.0022374687719259856,0.020683401355268145
3,49,1.0002679325634982,0.002292457222987232,0.019332896160609094
3,50,1.0002546568655812,0.002244491156627659,0.017882534174658418
3,51,1.00024439647332,0.0021238708376273407,0.016419659069751947
3,52,1.0002360977990357,0.0019593525536585267,0.014998566675356912
3,53,1.0002293635597812,0.0017746219539113584,0.013672457450093703
3,54,1.0002236606540327,0.0015866037053976442,0.012454598590877138
3,55,1.0002189774414438,0.0014064801059376528,0.01136684330738684
3,56,1.0002150217406267,0.0012404985288058308,0.010393745505012222
3,57,1.0002118862257672,0.0010916331634976708,0.009542598285816078
3,58,1.0002093188842935,0.0009603783749628447,0.008784980624833426
3,59,1.0002074080881949,0.0008460079303621822,0.008126832841571242
3,60,1.0002059020881267,0.0007469422094546545,0.007535871665101947
3,61,1.0002048813799167,0.0006614449702596253,0.007022658976740885
3,62,1.0002041043928267,0.0005876119205771737,0.006554100924997044
3,63,1.000203659388518,0.0005237409709168785,0.00614692547849298
3,64,1.000203328290628,0.0004681863173484044,0.005767463617650531
3,65,1.0002032166462282,0.0004195795978602724,0.005438463010958019
3,66,1.0002031321587599,0.00037665048878601646,0.005125029494734526
3,67,1.000203196087352,0.00033837696815893035,0.004855365742841111
3,68,1.0002032368857916,0.00030382235527394853,0.004592612422000898
3,69,1.0002033861667303,0.0002722491896199804,0.004369909905908379
3,70,1.0002034867935332,0.000242982425229344,0.004147839159789145
3,71,1.0002036754677783,0.00021549634201227175,0.003964108729591194
3,72,1.0002038039165055,0.00018930369873707939,0.0037763106113351164
3,73,1.0002040102094538,0.0001640183060219743,0.003626488777894969
3,74,1.0002041503982346,0.00013926650457310902,0.0034689452556770336
3,75,1.0002043616819782,0.00011473287254986755,0.0033499334509489603
3,76,1.0002045007796938,9.009680463620563e-5,0.0032202453100454442
3,77,1.0002047030462458,6.50502127588106e-5,0.0031302943557059595
3,78,1.000204822187484,3.923616038376214e-5,0.0030271852942873978
3,79,1.0002049898868473,1.224557417645174e-5,0.002965534471611004
3,80,1.0002050541460326,-1.6363357866513244e-5,0.002888591427878177
3,81,1.0002051447394298,-4.714825048669328e-5,0.0028552708469964426
3,82,1.0002050917492997,-8.077596724716227e-5,0.002804759892904415
3,83,1.000205039214965,-0.00011839920234208181,0.002800493539665413
3,84,1.0002047453340657,-0.00016121555344866963,0.0027776225539407665
3,85,1.000204453122951,-0.000210469402391363,0.0028040709238835856
3,86,1.0002037357746396,-0.0002673819913648113,0.0028109520108621985
3,87,1.0002030041821421,-0.000333683141549022,0.0028699831961351598
3,88,1.0002016808513425,-0.00041678616357746417,0.002909892295431657
3,89,1.0001997147369324,-0.0005186114406624015,0.003007082264286251
3,90,1.000198362310764,-0.0006454303997878243,0.0030844395535257084
3,91,1.0001931679663312,-0.0007886105707959335,0.0032330083614743217
3,92,1.0001913195038434,-0.0009647367946124905,0.0033421515235245863
3,93,1.0001790345068255,-0.00124813515887991,0.0035612313296820414
3,94,1.0001934689135992,-0.0015583500230192486,0.003603378274461142
3,95,1.0001600328772415,-0.0023888264657769445,0.0042767186329211474
3,96,1.0000180382703372,-0.002713679780213971,0.004668092375937996
3,97,1.0004324641457034,-0.0016906518645563309,0.002635093662985998
3,98,0.9999866126423019,-0.006524659715829016,0.00672336211934044
3,99,0.9992135312435302,-0.012927369592902471,0.008992883387764992
3,100,1.000293342700609,-0.0013659066648826796,0.0010483963080788724
3,101,0.9998233118037287,0.0550560908159066,-0.001771301223667502
4,1,1.0002098657507414,0.0004024863362440108,-5.366026637615656e-5
4,2,1.0002261701906598,0.0009837486709895922,-0.00035912845805854027
4,3,1.00022126872783,0.001166431152036349,-0.0008702363124384419
4,4,1.000213676698348,0.0011839119801023673,-0.001454555104715114
4,5,1.0002087301663356,0.0012496446827853567,-0.0020402841603958367
4,6,1.0002052888827744,0.0013526308409253086,-0.002631066344194673
4,7,1.0002005755849963,0.0014462612023805972,-0.003243222147470572
4,8,1.000194597638098,0.0015356125378861028,-0.0038826301030692517
4,9,1.0001882993275866,0.0016311282009259672,-0.004540359975006033
4,10,1.0001818995184704,0.001725631231946206,-0.00521809669774202
4,11,1.000175359474021,0.0018078394048357262,-0.005908930709843257
4,12,1.0001690201964846,0.0018681125066296706,-0.006608682870583446
4,13,1.0001632300104368,0.0018953031685794996,-0.00730035657412772
4,14,1.0001585524087573,0.0018760535492810745,-0.007970108490447842
4,15,1.0001554984593726,0.0017960447778243213,-0.008589402228556496
4,16,1.0001550044813563,0.001642538659023837,-0.009133408616948622
4,17,1.0001579618031622,0.0014067157237227118,-0.00956474076317367
4,18,1.0001656631872688,0.0010863109471597615,-0.009857243149283702
4,19,1.0001790388231102,0.0006865713660965522,-0.009979433770377945
4,20,1.00019912825366,0.000219766477265613,-0.009919666945385494
4,21,1.000226194212254,-0.0002975926234056573,-0.009663853202702584
4,22,1.000260442359661,-0.0008478076320713609,-0.009218814669484212
4,23,1.0003012266336322,-0.001415080107117538,-0.008583715275478338
4,24,1.0003479765103105,-0.0019869220167022267,-0.007774681471356308
4,25,1.000399411748547,-0.0025547161112754978,-0.006793586342438579
4,26,1.000454426561946,-0.003112795092109038,-0.005657035595867084
4,27,1.0005112999916888,-0.0036572924054490276,-0.004363538396953572
4,28,1.0005684305683316,-0.00418407802987817,-0.002926807276654145
4,29,1.0006236844094467,-0.004686802909708271,-0.0013411973648274633
4,30,1.0006749160020143,-0.005154466116947661,0.00038047601894192814
4,31,1.0007196397744216,-0.005569910023425567,0.0022423168054298984
4,32,1.0007553235174402,-0.005909254411653428,0.004223202330380835
4,33,1.0007796316084803,-0.0061437498302751165,0.006313802448403171
4,34,1.0007904666861664,-0.006243390547206734,0.008473608913308135
4,35,1.0007868633863437,-0.006182158863488119,0.010672949997370234
4,36,1.00076848905732,-0.005942874186952327,0.012853296891443895
4,37,1.0007368932687701,-0.005520738110759536,0.014974548161424277
4,38,1.0006940520037646,-0.004924145922059783,0.016977341169025176
4,39,1.0006437110697435,-0.004173197809467608,0.018829825347354986
4,40,1.000589005225997,-0.003296468354716962,0.020487242792592335
4,41,1.0005340203874702,-0.0023275695610175833,0.02193281836142309
4,42,1.0004810562223472,-0.0013027855946717778,0.02313381945052601
4,43,1.0004327834310751,-0.0002606617473766882,0.02407701468808081
4,44,1.0003897725071378,0.0007564605401626241,0.0247266893651225
4,45,1.0003531276872586,0.0017013746033924225,0.025062445517286272
4,46,1.0003222028092003,0.002523752506869623,0.02504919436142554
4,47,1.0002971411188015,0.0031772837859836314,0.024683215492844402
4,48,1.0002767107686046,0.003629543423637892,0.023969216605310328
4,49,1.0002606128808924,0.0038710858417063845,0.022959425297190562
4,50,1.0002475790040388,0.0039174523984854825,0.021715959074557326
4,51,1.0002373708135215,0.0038044350015921592,0.02033229875616162
4,52,1.0002290457463692,0.0035776790506887447,0.018883665799252533
4,53,1.0002225864712802,0.0032831768157148885,0.017450825045754136
4,54,1.0002173300496597,0.0029597251873585704,0.016076319135399125
4,55,1.0002133671829072,0.00263629292043325,0.014803501837667628
4,56,1.0002101763439466,0.002331283514428829,0.013637099730377121
4,57,1.000207883013777,0.002054780692026632,0.012592693529705375
4,58,1.0002060553703123,0.001810368325970622,0.011652725368110479
4,59,1.0002048466557383,0.0015980086926016815,0.010821943394262089
4,60,1.0002038955881458,0.0014152421482722776,0.010074430132404237
4,61,1.0002033746252752,0.0012588987081294909,0.009414809775830842
4,62,1.0002029673726356,0.0011252422761773753,0.00881545660623658
4,63,1.000202857387076,0.0010108906114743442,0.008285125499592389
4,64,1.0002027606351316,0.000912511204598729,0.007796321214591487
4,65,1.0002028742305165,0.0008274048393957057,0.007362869128728105
4,66,1.0002029385886535,0.00075304143380564,0.00695719129262727
4,67,1.0002031641233708,0.0006874941570211881,0.006597921919791055
4,68,1.00020330598716,0.0006289522800973067,0.006256648466045976
4,69,1.0002035863523813,0.0005760973079256261,0.005956343688474969
4,70,1.0002037665527717,0.0005276405810377512,0.005667057171384592
4,71,1.0002040795287437,0.0004826755484510545,0.005415718335227505
4,72,1.0002042859160665,0.000440251098238511,0.00517031155059277
4,73,1.0002046293175835,0.00039971308502464395,0.004961468860508157
4,74,1.0002048642188897,0.00036030468436933175,0.004754746043090775
4,75,1.0002052458506268,0.0003215105592809572,0.004584325681937569
4,76,1.0002055183907494,0.00028267420414710673,0.004413087978417211
4,77,1.0002059505814054,0.00024333591614750198,0.0042786878148453385
4,78,1.000206270316169,0.00020282537528623198,0.004141176177358151
4,79,1.0002067642463597,0.00016065290622283118,0.004041659241473269
4,80,1.0002071409686826,0.00011609757612721665,0.003937242834422948
4,81,1.0002077096231408,6.866777816386512e-5,0.003872489709134477
4,82,1.0002081553782498,1.7370339031526423e-5,0.003801531504100778
4,83,1.0002087778038584,-3.868176800474656e-5,0.003772646619999667
4,84,1.0002093044114244,-0.00010089960845429301,0.003736654649392524
4,85,1.0002099553743444,-0.00017010366171182957,0.003745869127099595
4,86,1.0002106524400762,-0.00024731470481580646,0.003746633553767046
4,87,1.000211230811426,-0.0003364203494935302,0.0037983494141077116
4,88,1.0002116069390565,-0.00043996075616623795,0.0038409301708185266
4,89,1.0002126913206435,-0.0005676065183499324,0.0039393182225607865
4,90,1.000212024544623,-0.0007144742654734293,0.00402855368418993
4,91,1.0002143446155416,-0.0008848444456014431,0.004169298158943893
4,92,1.0002059232863398,-0.001083621392522917,0.004328470255220397
4,93,1.0002284490373736,-0.001273353176449384,0.004385606323947903
4,94,1.0001944225431567,-0.0020458963114556635,0.004898802552416468
4,95,1.0001117834364208,-0.0025089367301817113,0.00510108491952507
4,96,1.0004208556437137,-0.0012049132580256668,0.0034447406136340897
4,97,1.0000621382229822,-0.003851437604182474,0.006050276588046103
4,98,0.9996538758751523,-0.008693127280487623,0.006850416387680018
4,99,1.0004548856016902,-0.005253089644933893,0.00043676821045936085
4,100,1.0006112859669838,0.001575325122798056,-0.0019714534074221327
4,101,0.9992617953945081,0.05245803116076863,-0.0003966169005139236
5,1,1.000209116540815,0.0005680661913981143,-5.487724044908651e-5
5,2,1.0002261454142223,0.0014251609276583858,-0.0003706022863090812
5,3,1.0002220186628685,0.0017496337419335112,-0.0009017751496124061
5,4,1.0002152063778678,0.0017962627108526542,-0.0015134466975345216
5,5,1.0002093900784188,0.0018553239544268783,-0.002131513428325188
5,6,1.0002045544160543,0.0019614954603991,-0.0027451644852658024
5,7,1.0001996788935419,0.002075100511244546,-0.0033594323238008887
5,8,1.00019351181556,0.0021849499285903832,-0.003993549755101777
5,9,1.0001861120639453,0.0022957472539122197,-0.0046418123491138745
5,10,1.0001783685853078,0.002403259119754579,-0.005306071250443216
5,11,1.000170186361804,0.002493915415221748,-0.005977598515676064
5,12,1.0001618058595425,0.0025520222418059153,-0.006658435408872424
5,13,1.0001533121835777,0.002559914883779822,-0.007327514575354909
5,14,1.0001455450508474,0.0024971934945989026,-0.007972307738192111
5,15,1.0001389445932136,0.0023424692863688043,-0.008553711594962847
5,16,1.0001349701824553,0.0020784457582844924,-0.009045835758856001
5,17,1.000134594456053,0.0016965389714676045,-0.009400130599922132
5,18,1.0001397411088866,0.0012002169773052199,-0.009596061776635002
5,19,1.0001511867300836,0.0006045178536286922,-0.009599142390560629
5,20,1.0001702676002626,-6.711623096526128e-5,-0.009413731464123665
5,21,1.0001966783135525,-0.0007885050838708241,-0.0090273442057979
5,22,1.0002306997827919,-0.0015354354199511799,-0.008464676399568181
5,23,1.0002710789879725,-0.0022890145383126404,-0.007722080420456043
5,24,1.0003174255407088,-0.0030361915034014518,-0.006829770128448273
5,25,1.0003680444173264,-0.0037693781130179694,-0.005781308924417083
5,26,1.0004221146928465,-0.004484758762535118,-0.004605532498522024
5,27,1.0004776816200733,-0.005180842331587038,-0.003289631671509286
5,28,1.0005334534590293,-0.005855846013280906,-0.0018587517122517884
5,29,1.0005872486162324,-0.006505013126098452,-0.0002925409912693299
5,30,1.0006371606726685,-0.0071168403627755025,0.0013866061102050869
5,31,1.0006807654889573,-0.007670472538418689,0.0032007753300949166
5,32,1.0007155011167064,-0.00813437255961753,0.0051191984018951675
5,33,1.0007390837016845,-0.008468985860855137,0.007149541489832529
5,34,1.0007489903173732,-0.008632222828347316,0.009236788047108929
5,35,1.0007443562336777,-0.008587916779536756,0.011363370283128536
5,36,1.000724171970642,-0.008313347791979741,0.01345115385222412
5,37,1.0006904273997332,-0.007804699379905844,0.015470901540957434
5,38,1.0006444642375827,-0.0070773086256227975,0.017346535409050394
5,39,1.000591021129773,-0.006162269411591109,0.01906525917442533