TITLE="CMs_NON_Orthogonal Re = 10000.0"
VARIABLES = X,Y,Rho,U,V
ZONE
I = 101	J = 101
F=POINT
1,1,1.0004099229236976,2.7812843507206545e-6,-2.5991677971381867e-6
1,2,1.000411307623788,6.846935568787998e-6,-2.113231604073225e-5
1,3,1.000410976232324,6.36458511256163e-6,-4.1690189801172286e-5
1,4,1.0004106658862135,5.53023393216231e-6,-6.36730844889846e-5
1,5,1.0004105692037117,5.011888946428219e-6,-8.328477846972444e-5
1,6,1.0004105941518158,4.206158228365663e-6,-0.00010685939392597284
1,7,1.000410734151739,2.6618915829365144e-6,-0.00012974035910369946
1,8,1.0004110330334361,1.0234502887768275e-7,-0.00015700204613416018
1,9,1.0004115113136842,-3.876508870627527e-6,-0.00018383513182793377
1,10,1.0004121965839374,-9.677244879672604e-6,-0.00021493160206796175
1,11,1.000413124085423,-1.7572325210548477e-5,-0.00024494715843236995
1,12,1.0004143535405607,-2.754888435273763e-5,-0.00027776970311147245
1,13,1.000415944623637,-3.9387882147234364e-5,-0.0003075107593892983
1,14,1.0004179727694733,-5.267704266782014e-5,-0.00033725357656495613
1,15,1.0004205054864153,-6.703416949788821e-5,-0.00036058551361879633
1,16,1.0004236199353744,-8.20933953921759e-5,-0.00037973422117143995
1,17,1.0004273726263755,-9.764453138506249e-5,-0.0003878321783360086
1,18,1.0004318149853066,-0.0001134821440300837,-0.0003863578324854214
1,19,1.0004369566489069,-0.00012950135473146067,-0.00036829109908370313
1,20,1.000442777386646,-0.0001455279964913413,-0.00033478247646559896
1,21,1.0004491891863059,-0.00016144187386869796,-0.0002792616713137937
1,22,1.000456049972345,-0.00017702119177816146,-0.00020325475651478359
1,23,1.000463137322096,-0.00019208164153907176,-0.00010140371794340146
1,24,1.0004701718491968,-0.00020633695086882552,2.3608318876658526e-5
1,25,1.0004768123188226,-0.00021954239815136654,0.0001752442620564231
1,26,1.0004826884480742,-0.0002313781929719999,0.0003490614295026082
1,27,1.000487417010234,-0.0002415926091140321,0.000546281242407579
1,28,1.000490634136963,-0.00024991083170067827,0.0007605403576391342
1,29,1.000492025065335,-0.0002561682318960876,0.0009910432186419687
1,30,1.0004913443878591,-0.0002602325611283258,0.0012299658897428495
1,31,1.0004884500997044,-0.00026210706747496017,0.0014753366268081796
1,32,1.0004832943984374,-0.0002618504103055019,0.0017188218880728465
1,33,1.0004759504916712,-0.0002596444702352037,0.001958420931612897
1,34,1.0004665715998793,-0.00025571396726720006,0.0021863272176899694
1,35,1.000455417786127,-0.00025035938203508826,0.0024015365717054804
1,36,1.0004427850934716,-0.00024388248404522646,0.002597479479274265
1,37,1.0004290372226001,-0.00023660161602599404,0.002774696158873298
1,38,1.00041451642596,-0.0002288070969735187,0.002928019317898819
1,39,1.0003995974689974,-0.0002207659209371571,0.003059588183781446
1,40,1.0003845892470211,-0.000212709419186165,0.003165396549143644
1,41,1.0003698152191323,-0.00020481940587874884,0.0032489499081812716
1,42,1.0003555044650152,-0.00019725393947399585,0.003306953669296903
1,43,1.0003419000199223,-0.0001901054369244532,0.003343956216110391
1,44,1.0003291356219963,-0.00018347097218933254,0.003356892716750761
1,45,1.0003173715788378,-0.0001773665392787359,0.0033511035816250114
1,46,1.0003066511290593,-0.00017185266145690697,0.0033233503617166944
1,47,1.0002970641472997,-0.0001668856803325302,0.003279668294735296
1,48,1.0002885770574546,-0.00016251634672611497,0.0032163450110982666
1,49,1.0002812265581786,-0.00015865436095260083,0.0031401748241720946
1,50,1.0002749175339654,-0.00015536508482852382,0.0030467371625567206
1,51,1.0002696506662418,-0.00015251701144042507,0.0029437746045932345
1,52,1.000265283253284,-0.00015020989765721773,0.002825921562507462
1,53,1.0002617953682322,-0.00014826699313789203,0.0027021290641266933
1,54,1.0002590089725916,-0.00014683711080137822,0.0025657723626018136
1,55,1.0002568970827954,-0.00014568494675272137,0.002427290790070356
1,56,1.0002552575587886,-0.00014501903275776287,0.002278347788707314
1,57,1.0002540687199393,-0.00014452535065795913,0.0021311357083636097
1,58,1.0002531162940054,-0.00014448275622521657,0.001974985476755745
1,59,1.0002523968676098,-0.0001444809802115425,0.0018240961590383568
1,60,1.000251698846964,-0.00014489467519279204,0.0016647263236951226
1,61,1.0002510505938933,-0.00014522418794182872,0.001513435184527968
1,62,1.0002502592633187,-0.00014599518989300814,0.0013527511111093233
1,63,1.0002493967958446,-0.00014664814489583533,0.001202278190155448
1,64,1.0002483083812221,-0.00014790417334766096,0.0010404892081300435
1,65,1.0002471256912573,-0.00014913048718119638,0.0008911338850970617
1,66,1.000245760176398,-0.00015119268538449064,0.0007285933992781727
1,67,1.000244418214288,-0.00015328660004278953,0.0005819101830396459
1,68,1.0002430918388505,-0.0001562828982266199,0.0004212336217620526
1,69,1.0002420416090627,-0.00015912245603150142,0.00028150092920353883
1,70,1.000241308647263,-0.00016258366427530048,0.00012814786377155635
1,71,1.0002411411711718,-0.0001654218800197898,1.8335493957608213e-6
1,72,1.0002415659424748,-0.00016834296491829,-0.00013724014699998188
1,73,1.0002427485637573,-0.0001701095307992901,-0.00024338015013920027
1,74,1.0002446621684966,-0.0001714118658644646,-0.0003617031199687951
1,75,1.0002473702476447,-0.00017120572268295857,-0.00044235389753804024
1,76,1.0002507888296082,-0.00017022611446179922,-0.0005352054808524677
1,77,1.0002548755860525,-0.0001677200094269827,-0.0005869720015353
1,78,1.0002595008178832,-0.00016441149722897747,-0.0006513062764524725
1,79,1.000264590785228,-0.00015969712070146405,-0.000672421017659603
1,80,1.0002700884770441,-0.0001542281574880543,-0.0007072832488398967
1,81,1.000275947289699,-0.00014768925887292893,-0.0006985492258931622
1,82,1.0002821068999557,-0.00014101435471975828,-0.0007052328929684312
1,83,1.0002884605618432,-0.0001343964701395549,-0.0006674297549889858
1,84,1.0002948901291193,-0.00012874748404657088,-0.000643943122320215
1,85,1.0003014351896444,-0.00012457009359133364,-0.0005716873297231634
1,86,1.0003079189819193,-0.0001221971997809609,-0.0005081597811721815
1,87,1.0003149345353763,-0.00012127601004977943,-0.00038904322737799924
1,88,1.0003223617696062,-0.00012283093593736837,-0.0002721424767667365
1,89,1.000329736151377,-0.0001257903129590149,-9.182736629592759e-5
1,90,1.0003383682980678,-0.00013455499513943022,9.881324588902705e-5
1,91,1.0003460905465915,-0.00014382253736991692,0.0003705887117754786
1,92,1.0003604986304788,-0.00016857573966051715,0.0006815771507321009
1,93,1.0003666791114072,-0.00022167963955603936,0.001154934157030848
1,94,1.0003574194387457,-0.00026688136207140845,0.0017667420922213327
1,95,1.0003597365403742,-0.0003292163035992491,0.002595581821210034
1,96,1.0003840232309744,-0.0002520411178670188,0.0034126038671786446
1,97,1.0005182934018555,-0.0008524933664652176,0.004899791421593661
1,98,0.9998935109026981,-0.0008562729295867324,0.007512819581799773
1,99,1.0002860711955068,0.0008735581792095878,0.007801113881695828
1,100,1.0014392068059679,-0.007696182067074716,0.01615864578261811
1,101,0.9961851305779257,0.026464172819927422,0.01394981186564758
2,1,1.0004083939320734,2.0082989018166943e-5,-6.509622610088488e-6
2,2,1.0004098683102853,4.451708452927367e-5,-4.3962605404442374e-5
2,3,1.00040905864754,4.717863827648066e-5,-9.683565902548214e-5
2,4,1.0004085126654343,4.4870191590033906e-5,-0.00015049438808685615
2,5,1.000408335657662,4.711878704272585e-5,-0.00019954153298827262
2,6,1.0004082318268492,5.2153388624297565e-5,-0.00025323996719800815
2,7,1.000408197578093,5.8474532886932656e-5,-0.0003093994756420832
2,8,1.0004082932149547,6.620117155477208e-5,-0.0003729761930271491
2,9,1.0004085734516466,7.533781558972666e-5,-0.00044000266287780017
2,10,1.0004090796162635,8.541248866539304e-5,-0.0005142514485324705
2,11,1.0004098928617866,9.575759997923205e-5,-0.0005901195746105561
2,12,1.000411096431253,0.00010553102873913433,-0.0006693222926975297
2,13,1.0004127985145548,0.00011366338337786765,-0.0007445711231816972
2,14,1.000415096008981,0.00011890996447401293,-0.0008157573369084349
2,15,1.000418108080713,0.00012002382201943478,-0.0008740691628261914
2,16,1.0004219300208665,0.00011587500721231053,-0.0009176513236463425
2,17,1.0004266643992152,0.00010557096789528246,-0.0009364343173337442
2,18,1.0004323629567764,8.850601760049392e-5,-0.0009272867840598402
2,19,1.0004390571388304,6.444655345190034e-5,-0.0008796976947303425
2,20,1.0004466920341788,3.3556559617372206e-5,-0.0007903771563521255
2,21,1.0004551649638347,-3.546952633112303e-6,-0.0006497860435032715
2,22,1.0004642620433772,-4.581405959396691e-5,-0.00045607208603281013
2,23,1.0004737160541937,-9.176021775365373e-5,-0.00020234237254065498
2,24,1.0004831514390466,-0.00013954591055349267,0.00011014483119338679
2,25,1.000492165453429,-0.00018704138864350753,0.00048412761794511207
2,26,1.000500279743789,-0.00023197703758448944,0.0009139614767087995
2,27,1.0005070435484429,-0.0002720803952908613,0.0013974506637702425
2,28,1.000511986933374,-0.00030527978433464193,0.0019243394454181153
2,29,1.0005147422533751,-0.0003298583114315774,0.0024880861988173285
2,30,1.0005149866140761,-0.0003446089549682083,0.003075084004848731
2,31,1.0005125618383393,-0.0003488918343578475,0.0036764225757319547
2,32,1.0005073856256173,-0.0003426686970177526,0.004277438626355187
2,33,1.0004995614627652,-0.00032645048846828827,0.004869413675724984
2,34,1.0004892573709376,-0.00030121347744120115,0.005438983718323627
2,35,1.0004768009546312,-0.0002682491646877385,0.00597973931236702
2,36,1.0004625291743454,-0.00022902221339151833,0.006481070864205553
2,37,1.00044688238405,-0.0001850398706096404,0.006939862412039792
2,38,1.0004302506064306,-0.0001377515055505727,0.007348553807014951
2,39,1.0004130784244945,-8.848062139644472e-5,0.007707311353311702
2,40,1.0003957187181092,-3.8362950780623526e-5,0.008011098677612967
2,41,1.0003785464339745,1.1659361023460818e-5,0.00826276574064776
2,42,1.0003618272305443,6.0865384978816696e-5,0.008458864927543993
2,43,1.0003458333517652,0.00010870256585938927,0.008604162671216308
2,44,1.000330732055044,0.00015480317825239333,0.008695835810606945
2,45,1.0003166915512192,0.00019889044823156887,0.008739963900468732
2,46,1.0003037942550972,0.0002408123373700436,0.008733593190453083
2,47,1.0002921186461964,0.0002804196885385886,0.008683842813787855
2,48,1.0002816854904033,0.00031764074798144675,0.008587153628857248
2,49,1.0002725004910105,0.0003523358543619309,0.008451756762326032
2,50,1.00026454573601,0.0003844296386390108,0.00827323850672023
2,51,1.0002577666494603,0.00041373868574035315,0.008061274919784249
2,52,1.0002521250225007,0.00044017268946070767,0.007810444163694422
2,53,1.0002475116349085,0.00046352541606907763,0.007532318175822052
2,54,1.0002438811356256,0.00048375116938100655,0.0072202484830686635
2,55,1.0002410691439958,0.0005007060200564442,0.006888110506319428
2,56,1.0002390328873054,0.000514501350603772,0.0065275926149814915
2,57,1.00023754939776,0.0005251793298336503,0.006155087933093721
2,58,1.000236589527403,0.0005331315970108374,0.005759859156808796
2,59,1.0002358734945713,0.0005386754952228079,0.005360757411100031
2,60,1.0002354089292393,0.0005424922925933662,0.004943584797353336
2,61,1.0002348792705082,0.0005450551914254422,0.004529498187744272
2,62,1.0002343731683896,0.0005470492131994367,0.004099984013517835
2,63,1.0002335765779056,0.0005486801932153846,0.0036788541991437987
2,64,1.000232712531984,0.000550150515614721,0.0032433069936809934
2,65,1.0002315071411882,0.0005510068691190496,0.0028210581169096846
2,66,1.0002303528426,0.0005507922720013264,0.002385877855784372
2,67,1.0002290233611995,0.0005485366368856388,0.00197075001181445
2,68,1.000228066511955,0.0005435386396871746,0.001546525252894817
2,69,1.000227255839871,0.0005349062104950255,0.0011516121099229887
2,70,1.0002272200742175,0.0005222759880533016,0.0007533001862068424
2,71,1.0002276461662711,0.0005052682409742481,0.00039427362761923794
2,72,1.000229152090846,0.0004840521305404915,3.718410889285223e-5
2,73,1.0002312740559471,0.0004587508235723409,-0.000272342167538834
2,74,1.0002345739536658,0.0004299116180022135,-0.0005767311374978718
2,75,1.0002384433330067,0.00039788211035822956,-0.0008281894869137663
2,76,1.0002434052015683,0.0003631969043942044,-0.0010737344082561951
2,77,1.0002487388286732,0.0003261257344773505,-0.00126344961048432
2,78,1.0002549246653645,0.00028732527438370326,-0.0014479190170387337
2,79,1.0002611527985323,0.00024762814919220406,-0.0015755523424639812
2,80,1.000267940004972,0.00020826466895842237,-0.0017009237565655847
2,81,1.0002745543760194,0.00016971644001289018,-0.001772279669664154
2,82,1.000281622650286,0.00013154087293964573,-0.0018471697343380425
2,83,1.0002884916223644,9.230686946546106e-5,-0.0018709765314571217
2,84,1.0002958314579506,4.9973530147528305e-5,-0.0018994609903209261
2,85,1.0003028365685085,2.720289555377263e-6,-0.0018717792449054705
2,86,1.0003104081972751,-5.0338586375411624e-5,-0.001841511598732555
2,87,1.0003175924586036,-0.00010674282950485305,-0.0017464368204712587
2,88,1.0003260981526043,-0.0001668078100517968,-0.0016487081889823905
2,89,1.0003343945654537,-0.00023783744186865258,-0.0014830701977875792
2,90,1.0003431618688867,-0.0003175864721314361,-0.0013092885519599884
2,91,1.0003559259413508,-0.00042902472803071017,-0.0010468284098851866
2,92,1.0003680174926717,-0.000598600032560101,-0.000717738220254627
2,93,1.0003924245062934,-0.0008901459678783347,-0.00020035921643337344
2,94,1.0003953775429697,-0.0012532969466919485,0.0005903801159893693
2,95,1.0004187461946432,-0.0013663966277004686,0.0015006705088485184
2,96,1.0004567772237263,-0.002119392069958557,0.003039739596813847
2,97,1.0003216486711204,-0.0030536182436500547,0.004910305584231847
2,98,1.0009943744909338,-0.0030115154031687815,0.00552948790947614
2,99,0.9998761395395871,-0.009666877550018577,0.0165014553459156
2,100,0.9993254452775082,-0.012253616550615935,0.02181927153079448
2,101,1.0034392626464355,0.051352426252857034,0.005662247216685935
3,1,1.00040863633162,3.966066783728072e-5,-6.245754238879472e-6
3,2,1.0004107618798739,9.675611328518026e-5,-4.559369252751458e-5
3,3,1.000410036763785,0.0001090287426575001,-0.00010857340278513691
3,4,1.000409130502994,0.00010071136288214385,-0.0001766527588063494
3,5,1.0004089298751213,9.931476113644982e-5,-0.00023729151063234724
3,6,1.0004089551311335,0.00010553422061503019,-0.0002995236413370236
3,7,1.00040895733015,0.00011374888559709258,-0.0003656509773262089
3,8,1.000409032956405,0.0001218616600136764,-0.0004412818854079453
3,9,1.0004092681790044,0.0001284837684223704,-0.0005231562621563349
3,10,1.0004097123365923,0.0001314394784492119,-0.0006139818300199499
3,11,1.0004104397362323,0.00012855074322185817,-0.0007081644168935949
3,12,1.0004115349030642,0.00011810623585634103,-0.0008056414829014549
3,13,1.0004130984832942,9.875510297723119e-5,-0.0008984712634588812
3,14,1.0004152230556607,6.932671203745121e-5,-0.0009842774846656745
3,15,1.0004180140408856,2.8743384610729565e-5,-0.0010532774499597609
3,16,1.0004215595020507,-2.3970000509779128e-5,-0.0011011567856295834
3,17,1.0004259451974526,-8.958503423855998e-5,-0.0011168394366828773
3,18,1.00043121396126,-0.00016848766105558193,-0.0010948380760219154
3,19,1.0004373827190147,-0.00026050351931773756,-0.0010238553467168694
3,20,1.0004443968704246,-0.0003647509099568332,-0.0008985308687632012
3,21,1.0004521585548825,-0.0004795605257345419,-0.000708882578447119
3,22,1.000460479854756,-0.0006024277735979175,-0.00045140521860804876
3,23,1.0004691272779414,-0.0007300334025089531,-0.00011933703124433179
3,24,1.000477772131547,-0.0008583175451089432,0.0002869276463156995
3,25,1.0004860551121117,-0.0009826631821982566,0.0007689443394081476
3,26,1.000493536946248,-0.0010981721268776426,0.0013207112228902996
3,27,1.0004997936300617,-0.0012000481002212382,0.0019375845918980401
3,28,1.0005043728669931,-0.0012840093110666844,0.002607888379614274
3,29,1.000506917191196,-0.00134666911018522,0.003321884371278229
3,30,1.0005071046881662,-0.0013858045354036264,0.004064260117464326
3,31,1.0005047762033425,-0.0014004952128729529,0.004823020137420575
3,32,1.0004998443232942,-0.0013911281817288283,0.0055823493069613065
3,33,1.000492413047233,-0.0013592493360964034,0.0063311951140891725
3,34,1.0004826395033963,-0.001307308749163795,0.0070559356408655466
3,35,1.0004708418073005,-0.001238330416170883,0.007748559356889376
3,36,1.0004573308153715,-0.0011556257113530055,0.008398883480833157
3,37,1.0004425315186039,-0.0010625170486015907,0.009002618004620992
3,38,1.0004268005233972,-0.0009621605887580614,0.009553030517042647
3,39,1.0004105685090496,-0.0008573665613401437,0.010049223931610458
3,40,1.0003941491422152,-0.0007505405693799634,0.010487107120868993
3,41,1.0003779090206923,-0.0006436017620374431,0.010868286791289017
3,42,1.0003620699558395,-0.0005380358166125379,0.011190168159444859
3,43,1.0003469063066792,-0.0004348830024440573,0.011455898974677785
3,44,1.0003325365860563,-0.00033486354328124787,0.011663304652550778
3,45,1.000319145599633,-0.00023838934027529913,0.011816359160610312
3,46,1.000306760258407,-0.00014572064016581219,0.011912515219460745
3,47,1.0002954943035274,-5.696433171671817e-5,0.011956255065904437
3,48,1.0002853040707547,2.7766692693924804e-5,0.011944213194897456
3,49,1.0002762547718982,0.00010839218361747604,0.011881484145274493
3,50,1.0002682534737737,0.0001847201332194602,0.011763747703058188
3,51,1.0002613364330202,0.0002565345505103725,0.011597177169915485
3,52,1.000255378188422,0.00032347517300606264,0.011376563293393786
3,53,1.0002503988701525,0.00038517623966452985,0.011109868291097759
3,54,1.0002462504377747,0.00044117307363932906,0.010791112797963406
3,55,1.0002429410874998,0.0004910862163181302,0.010430840472213007
3,56,1.0002403028609874,0.0005345538500905147,0.010022296444514285
3,57,1.000238327495427,0.0005714455061200104,0.009579274691352675
3,58,1.0002368248910933,0.0006017979609519342,0.009093912247517415
3,59,1.000235762253987,0.0006259963772857482,0.008583566290107961
3,60,1.0002349313515402,0.0006446208926785022,0.008038460234041683
3,61,1.000234280334307,0.0006584692988763452,0.007479396963808193
3,62,1.0002336142732489,0.0006682222501921117,0.006893628755606766
3,63,1.0002328987733253,0.0006743222806594482,0.006305294565942862
3,64,1.0002320147015555,0.0006766438038760674,0.00569811477033673
3,65,1.0002309961038187,0.0006745647278121436,0.005100074530136309
3,66,1.0002298567306473,0.0006669856843943456,0.004491565942361757
3,67,1.0002287177680589,0.0006527695812828808,0.003904998663312386
3,68,1.0002277293744137,0.0006309863989359268,0.0033172949471987887
3,69,1.0002270500908712,0.0006013351220884181,0.0027646235341820488
3,70,1.0002269005827598,0.0005641455211900383,0.0022192462626298816
3,71,1.0002273767256988,0.0005204214961159098,0.0017194553572993363
3,72,1.0002286836257204,0.00047154115105857083,0.0012318109950730685
3,73,1.0002307770948606,0.0004191116257263981,0.0007957263521129337
3,74,1.0002338084430389,0.00036469318956040847,0.00037239523079263866
3,75,1.0002375834144768,0.0003096024594148222,2.5220157824852512e-6
3,76,1.000242218298922,0.0002547285513379392,-0.0003566486623292446
3,77,1.000247407163285,0.000200544231468426,-0.0006624099911253961
3,78,1.0002532513318327,0.00014763081042779675,-0.0009598546992538543
3,79,1.0002593439956886,9.722231904840912e-5,-0.0012041479871047658
3,80,1.00026578822721,5.113694597846782e-5,-0.0014426780655028058
3,81,1.0002721456984802,1.0271527857070015e-5,-0.0016302281863352123
3,82,1.0002786625472253,-2.670466589176657e-5,-0.0018169050112308057
3,83,1.000284988117284,-6.357374967665998e-5,-0.001955843938169356
3,84,1.0002914719143,-0.00010546843794883262,-0.002095379393141276
3,85,1.000297665356021,-0.000157885886045203,-0.0021821402854353324
3,86,1.0003035700638292,-0.00021964847944806507,-0.00226082242476789
3,87,1.0003095605234593,-0.0002842258531485007,-0.0022820477566811164
3,88,1.0003149931522572,-0.0003491573271502024,-0.0022978008517707364
3,89,1.0003206642049012,-0.0004199101711518046,-0.0022721142288045708
3,90,1.0003269313416212,-0.0005168216740323335,-0.002243722091612507
3,91,1.0003309117344046,-0.0006484470378779042,-0.002160830717541628
3,92,1.0003411412039114,-0.0009089498099212448,-0.002045250782394668
3,93,1.00033458972726,-0.0013313676119637325,-0.001791360707209045
3,94,1.0003727804091511,-0.0017588150555247542,-0.0016487087155945938
3,95,1.00035872469488,-0.002550410013880911,-0.0007946744039648631
3,96,1.000205928846588,-0.0028584458486228107,-0.00021651304555984175
3,97,1.0006459425295895,-0.003216447916322768,-0.0010655903858311693
3,98,1.0002752665636672,-0.009738132271513412,0.0044597265408989
3,99,0.9992516537108541,-0.015479992702850031,0.006758454950179586
3,100,1.000248782775247,-0.0023834269229172232,-0.000262312989121984
3,101,1.0000655660415587,0.05510879222883943,-0.0019154568243127683
4,1,1.0004088043229793,5.980449245395485e-5,-6.343621570718012e-6
4,2,1.0004110229617882,0.00015075550289440318,-4.459446941079851e-5
4,3,1.00041064219197,0.00017933699246205974,-0.00010651709976437959
4,4,1.0004097325119077,0.00016977839646270168,-0.00017707613527520667
4,5,1.0004092489906962,0.00016523882352036915,-0.00024285758472660356
4,6,1.0004092292285491,0.00017635893804822974,-0.000307902429288251
4,7,1.0004092741911474,0.00019649838549385236,-0.0003760237145969043
4,8,1.000409294302583,0.00022009764807575188,-0.00045488677059253097
4,9,1.0004094249961744,0.00024451145945738944,-0.0005418574374114146
4,10,1.0004097432194643,0.0002669208165754808,-0.0006383951871326823
4,11,1.0004103184791238,0.00028404510856583153,-0.0007387385517051071
4,12,1.000411222844966,0.00029265855645557053,-0.0008416246985262726
4,13,1.000412553527813,0.00028956613279027893,-0.0009388011531740589
4,14,1.0004143957837037,0.0002715625249135433,-0.001026489696597197
4,15,1.0004168525592827,0.00023560558205671265,-0.0010944967909097116
4,16,1.0004200039072941,0.00017907310186523968,-0.0011370663895579431
4,17,1.0004239374744819,9.999576912061884e-5,-0.0011426646682221426
4,18,1.0004286966370322,-2.7363928859650514e-6,-0.0011042362301230237
4,19,1.000434317187946,-0.00012918075069743372,-0.0010097934040320517
4,20,1.0004407682097092,-0.0002781615463845283,-0.000852097955340118
4,21,1.0004479956746064,-0.0004471033227912905,-0.0006202557968213784
4,22,1.0004558519138171,-0.0006319038852035951,-0.00030898470531801026
4,23,1.0004641457067651,-0.0008269010341116044,8.872872551693919e-5
4,24,1.0004725637563352,-0.0010250143159322442,0.000572959274046493
4,25,1.0004807439957923,-0.0012181195475629673,0.0011436714729743957
4,26,1.0004882118184917,-0.001397662155454373,0.0017932922839516787
4,27,1.0004945004577468,-0.0015554185094674685,0.002513748991960569
4,28,1.0004991044769496,-0.0016842625516465914,0.003290529382361038
4,29,1.0005016260237534,-0.0017787858499694617,0.004109934233428766
4,30,1.000501712316905,-0.001835707397255023,0.004954111535038774
4,31,1.0004992032018007,-0.0018540129701235765,0.0058080816243957535
4,32,1.0004940267967062,-0.0018348288606233323,0.0066549924036303585
4,33,1.0004863191498516,-0.001781039886132695,0.007482404323054889
4,34,1.0004762675121617,-0.0016968080049190536,0.008277241755747696
4,35,1.0004642240752448,-0.0015870518522992554,0.00903139779825249
4,36,1.0004505285766214,-0.0014570102105110935,0.009736419688101081
4,37,1.0004356335499403,-0.0013118302212902697,0.010388715262658057
4,38,1.0004199137270366,-0.0011562874715955107,0.010983965073074817
4,39,1.0004038111029336,-0.00099453677800645,0.011522183022438801
4,40,1.0003876416167865,-0.0008300285821868904,0.012001884764488376
4,41,1.0003717667771395,-0.0006654254134708424,0.012425321030423016
4,42,1.0003563986540704,-0.0005026843301134347,0.012792385342134267
4,43,1.0003417956064957,-0.00034307571654411173,0.013106300727067362
4,44,1.0003280603932942,-0.0001873654416855741,0.013367122738007131
4,45,1.0003153559947013,-3.586414863100388e-5,0.013578147512809675
4,46,1.000303691310822,0.00011134687918773993,0.013738748823308075
4,47,1.000293155066767,0.0002543903494930497,0.013851826608308304
4,48,1.0002836846478247,0.000393358999695793,0.013915597564499633
4,49,1.0002753185037727,0.0005283501189283002,0.01393250806762213
4,50,1.0002679444766083,0.0006592426319558701,0.013899455399635396
4,51,1.0002615729397573,0.0007858122740704668,0.013818743529409466
4,52,1.0002560611696496,0.0009075260173349591,0.01368603700294524
4,53,1.0002514103079037,0.0010237460012193001,0.013504140335346164
4,54,1.000247462119347,0.001133541773838997,0.013267773342960771
4,55,1.0002442224890737,0.0012359855810165265,0.012981189667251787
4,56,1.000241526946829,0.0013299860926017446,0.012638608328607534
4,57,1.0002393917889127,0.001414670405887539,0.012246922246962546
4,58,1.0002376463584588,0.0014892280626844152,0.011800336591027957
4,59,1.0002363109216172,0.0015533170403859368,0.01130961001664332
4,60,1.0002351998852028,0.0016068155025347546,0.01076918184801696
4,61,1.0002343258942876,0.001650065338688117,0.010194524661825643
4,62,1.0002334895957756,0.0016833712418637928,0.009579936304795766
4,63,1.0002327069902222,0.0017069990588238291,0.008945723773951291
4,64,1.0002318049469703,0.0017206126957503638,0.008285020680984289
4,65,1.0002308517111498,0.001723437357913609,0.007622509259242838
4,66,1.0002297671208047,0.0017141810762172683,0.006948849648280967
4,67,1.0002287170398199,0.001691670962797469,0.0062921578585743215
4,68,1.0002277432743136,0.0016551569805736464,0.005638921141453088
4,69,1.0002270862014033,0.0016048478536007436,0.005018963788251307
4,70,1.0002268549440088,0.001541877495651715,0.004412612367995045
4,71,1.0002272705109903,0.00146820884147514,0.00384965961720997
4,72,1.0002284159701336,0.0013861961477696354,0.003303408168446328
4,73,1.0002304101128465,0.0012982362916284364,0.0028034038911724617
4,74,1.0002332610641003,0.0012064418558438027,0.002317139794354814
4,75,1.000236965797013,0.0011123787910242565,0.0018753001628856504
4,76,1.0002414691972297,0.001016948528728501,0.0014419358899463647
4,77,1.0002466861671997,0.0009204363600295512,0.0010504195695433306
4,78,1.0002525539551492,0.0008231453144630091,0.0006634171698456153
4,79,1.0002589441044127,0.0007261639988742307,0.0003179713959521698
4,80,1.0002657639153123,0.000631613726610571,-2.3061911161051785e-5
4,81,1.000272828845646,0.0005411314552408928,-0.0003192916352263992
4,82,1.0002800345272096,0.00045391547829818474,-0.0006081045538318448
4,83,1.0002873548688396,0.0003658557041521488,-0.0008478138972230439
4,84,1.0002947825789217,0.0002691351422581619,-0.0010745961887608183
4,85,1.0003021730604913,0.00015677232730197226,-0.00124243458482944
4,86,1.0003098067258345,2.98930952958913e-5,-0.0013836086056801431
4,87,1.0003170891570228,-9.803703848743534e-5,-0.001450632389593394
4,88,1.0003255599488452,-0.00021794362562167695,-0.001489699841749533
4,89,1.0003336178646804,-0.0003469232820306382,-0.0014492961163307275
4,90,1.0003419557000661,-0.0004972812794603797,-0.0013795309471509353
4,91,1.0003517378653681,-0.0007297245686736256,-0.0011960515549719623
4,92,1.0003484048194,-0.0010507168848076876,-0.0009494086106878233
4,93,1.0003869030167327,-0.0014545801928371553,-0.0007883057984781207
4,94,1.000363035735794,-0.002373106495629454,-0.0001300464232293788
4,95,1.0003021378574974,-0.0028316138627798356,9.313706656110693e-5
4,96,1.0006207847487882,-0.0026313111274748565,-0.0003720592053070765
4,97,1.0002483384095546,-0.006807008922312418,0.0036642067461192893
4,98,0.9997773477819658,-0.011639039067121352,0.004169109857358898
4,99,1.0005503159777787,-0.008628728668789743,-0.001648935647485592
4,100,1.0008566730993533,-0.000826510202367978,-0.0025785516995595987
4,101,0.9994391143577023,0.05203262181894424,-0.0005390145688082941
5,1,1.0004089617703271,7.908999686998667e-5,-6.355163389403455e-6
5,2,1.0004111198322099,0.00020248913240047758,-4.459589606952995e-5
5,3,1.0004107633778436,0.00024608396749006747,-0.00010636526858108255
5,4,1.000410014486192,0.0002368987774439482,-0.0001769301269537473
5,5,1.0004094359605133,0.0002281988075360908,-0.0002464928135389724
5,6,1.000409116688195,0.00023754366240445754,-0.0003181873189327355
5,7,1.000409018040037,0.0002606161593150862,-0.00039263452516150266
5,8,1.00040892880298,0.00028807899562058466,-0.00047734627352889134
5,9,1.000408846287875,0.00031266570078793685,-0.0005710606815703634
5,10,1.0004088970145888,0.0003291233898662657,-0.0006744077316036359
5,11,1.0004091737027334,0.00033273295497571935,-0.000780977515221971
5,12,1.0004097431737575,0.0003192030024310962,-0.000888631593416746
5,13,1.0004106991999449,0.00028480715621008543,-0.0009887390428937287
5,14,1.0004121338127179,0.00022625185993840728,-0.0010764757821925843
5,15,1.0004141582277468,0.00014056532634674888,-0.0011408447367662327
5,16,1.0004168711713057,2.5149970162466838e-5,-0.001174497442509881
5,17,1.0004203836583474,-0.00012202872585458048,-0.0011643251520693908
5,18,1.000424779410447,-0.0003021352880600646,-0.001100744970916464
5,19,1.0004301387835275,-0.0005150865656074085,-0.0009692111603237513
5,20,1.000436486816501,-0.0007590919567151515,-0.0007593524110823751
5,21,1.0004438113940048,-0.0010301976002863682,-0.0004578450631247666
5,22,1.0004519910343044,-0.0013219181805602985,-5.758671900899942e-5
5,23,1.0004608156657788,-0.0016251707838862792,0.0004483863705682802
5,24,1.0004699170759892,-0.0019286184779463908,0.0010585227634618334
5,25,1.0004788356911634,-0.0022195164452959376,0.0017690695244525283
5,26,1.000486990052386,-0.0024848870259777034,0.0025675531407038468
5,27,1.0004938043596874,-0.002712830060377904,0.003439993437965124
5,28,1.0004986894789205,-0.002893656744162348,0.0043660244181748355
5,29,1.0005011936251764,-0.003020739009220968,0.005326463625949104
5,30,1.0005009578448913,-0.003090909117043737,0.006299084296117256
5,31,1.0004978517490455,-0.003104414038384988,0.0072656475567527785
5,32,1.000491855667102,-0.003064435309440869,0.008207299446719527
5,33,1.0004831667124177,-0.0029764107824056633,0.009110624761451927