TITLE="CMs_NON_Orthogonal Re = 10000.0"
VARIABLES = X,Y,Rho,U,V
ZONE
I = 101	J = 101
F=POINT
1,1,1.000908986688623,8.142342294544505e-7,-2.6637652019720276e-6
1,2,1.000910019018544,4.2200444016978135e-6,-1.7291390599715486e-5
1,3,1.0009099435234905,4.2679291689188065e-6,-3.619647402076839e-5
1,4,1.0009101872887443,4.534379985887591e-6,-5.804251332230234e-5
1,5,1.0009104456992837,4.4429385653021115e-6,-8.427234897302434e-5
1,6,1.0009107070615506,3.5221217500691205e-6,-0.00011593961107555485
1,7,1.0009109944392676,1.2165500493651073e-6,-0.0001538508856769933
1,8,1.0009113213293332,-3.237853985404875e-6,-0.00019911320363781858
1,9,1.0009116814558763,-1.0913767703072449e-5,-0.00025277648331905667
1,10,1.0009120597775862,-2.321444440550726e-5,-0.00031604372770989317
1,11,1.0009124311515127,-4.186411115712102e-5,-0.0003897809367690434
1,12,1.0009127700233547,-6.887830554984171e-5,-0.0004746263208867455
1,13,1.0009130593868887,-0.00010651089884511525,-0.0005704707942227687
1,14,1.0009133053594967,-0.0001571610515137023,-0.0006765114361936654
1,15,1.0009135529601978,-0.00022325083421882662,-0.0007907803508344071
1,16,1.000913903455359,-0.0003070535292508642,-0.0009102385606520312
1,17,1.0009145249709106,-0.00041051769978666004,-0.0010304810619214215
1,18,1.0009156540838233,-0.0005350858287298744,-0.0011459808025732897
1,19,1.0009175813194409,-0.0006815596032709125,-0.001250033844666449
1,20,1.0009206241934856,-0.0008499941617888108,-0.001335135504607689
1,21,1.000925087111616,-0.0010396513013265893,-0.0013930885114583303
1,22,1.0009312162849684,-0.0012489801891375227,-0.0014154214176327674
1,23,1.0009391506497984,-0.001475647660767459,-0.0013935962624566024
1,24,1.0009488763220087,-0.001716593849221481,-0.0013194779963915228
1,25,1.000960185091112,-0.0019681361426669274,-0.0011856930100196173
1,26,1.0009726441222697,-0.002226103802986302,-0.0009862238223364661
1,27,1.0009855795545435,-0.002486017910212837,-0.0007169219428002893
1,28,1.0009980854400091,-0.0027432920676502344,-0.0003761276299016111
1,29,1.0010090648641436,-0.0029934521725156274,3.4903393651471474e-5
1,30,1.0010173083508267,-0.003232346143013813,0.0005116679833183416
1,31,1.0010215993899325,-0.0034563507721755865,0.0010463981607358697
1,32,1.0010208353123446,-0.0036625668813083396,0.0016282823205787055
1,33,1.0010141447946512,-0.0038489837950984145,0.0022440852479086964
1,34,1.0010009866212248,-0.004014533718563175,0.002879025628878223
1,35,1.0009812106113252,-0.004159017367145608,0.0035177912019228375
1,36,1.0009550734641817,-0.004282928951819735,0.004145467280711823
1,37,1.0009232058949291,-0.0043872524252977505,0.0047483030946384765
1,38,1.0008865439515393,-0.004473262070664986,0.005314260304417709
1,39,1.0008462350723883,-0.004542359786869996,0.0058333267639765155
1,40,1.000803540784789,-0.0045959452696858185,0.006297647111955818
1,41,1.0007597432199937,-0.004635329160555294,0.006701454792488192
1,42,1.000716072408388,-0.004661674168095711,0.007040933867946423
1,43,1.0006736483169592,-0.0046759688649062724,0.007313947003788558
1,44,1.0006334495078306,-0.004679017125669197,0.007519815643516782
1,45,1.0005962907872767,-0.00467144814814195,0.007658997150308605
1,46,1.0005628242349445,-0.004653730878313052,0.0077329152280610335
1,47,1.0005335369517396,-0.004626200401220576,0.007743662934352303
1,48,1.0005087697248694,-0.004589080972256709,0.007693948556676403
1,49,1.000488719411943,-0.004542517313723785,0.007586833387438379
1,50,1.0004734653436802,-0.004486597100409657,0.007425818959559129
1,51,1.0004629662880387,-0.004421383081546027,0.007214582546496993
1,52,1.0004570916628506,-0.004346929609819842,0.00695722413794965
1,53,1.0004556077848834,-0.004263316947666551,0.006657926048936319
1,54,1.0004582165900853,-0.004170655348103403,0.0063213987394854405
1,55,1.0004645283185578,-0.004069128497969673,0.0059523425037161974
1,56,1.0004741142409177,-0.0039589716123271885,0.0055561866825649155
1,57,1.0004864632754522,-0.0038405410821711074,0.005138143801426583
1,58,1.0005010573725928,-0.0037142370586808336,0.004704455404762919
1,59,1.0005173083128196,-0.003580638211871354,0.004260659361367837
1,60,1.0005346645607731,-0.0034403079234873843,0.003813801819885968
1,61,1.0005525223627834,-0.003294076817990558,0.003369209035905291
1,62,1.0005703701417719,-0.003142616525264424,0.0029346136225817327
1,63,1.0005876658640716,-0.002987025218470704,0.0025141065242462748
1,64,1.00060401923126,-0.002827975027496123,0.002115999475370694
1,65,1.0006190285153616,-0.0026668324819119275,0.001741616984656123
1,66,1.0006324903947486,-0.002504156385308468,0.001399957018512396
1,67,1.00064419454818,-0.0023415264131449133,0.0010878394111178142
1,68,1.0006541500785875,-0.002179345637066772,0.0008152787292051148
1,69,1.0006623470318143,-0.0020192631528914923,0.00057336504163584
1,70,1.0006689608078059,-0.001861629496972497,0.000373432272318136
1,71,1.000674115466976,-0.001707912584605433,0.00020095158466496216
1,72,1.0006781142489325,-0.0015584530620432393,6.84552027945689e-5
1,73,1.0006811628931862,-0.0014145678626757616,-4.2915936062799435e-5
1,74,1.0006834659683255,-0.0012766822006928826,-0.00011909032135477275
1,75,1.000685153974768,-0.0011455875498261761,-0.00018134646930233135
1,76,1.0006865900186375,-0.0010214387614817914,-0.00021468836323372428
1,77,1.0006879929116856,-0.0009051842547898218,-0.0002418710809981829
1,78,1.0006892978975428,-0.000797401747722224,-0.00024513544545007543
1,79,1.0006902190686426,-0.0006986642459733064,-0.0002458554944129403
1,80,1.0006908106484038,-0.0006083436737208807,-0.00022402665374674673
1,81,1.0006913510073807,-0.000525796893781015,-0.00020347286136320768
1,82,1.0006922230231667,-0.00044968841314350623,-0.00016573010322077936
1,83,1.0006935213233281,-0.0003793678001603464,-0.0001383228617911086
1,84,1.0006952269106066,-0.0003138200709451494,-0.00010263065806825711
1,85,1.000697220676295,-0.00025349415550135793,-8.797992630300935e-5
1,86,1.0006992874154113,-0.000198292831033207,-7.347168226324348e-5
1,87,1.0007014740246325,-0.00015086014713431263,-8.926805986883001e-5
1,88,1.000703289008563,-0.00011286413934008122,-0.00010690333914322514
1,89,1.000704723702456,-8.617457100897869e-5,-0.00015061828713793923
1,90,1.000705754897045,-7.421376371748406e-5,-0.0001771412596094519
1,91,1.0007059606084843,-7.121436470184977e-5,-0.00019890695607584628
1,92,1.0007150821205106,-9.696270571614795e-5,-0.00014994255629732385
1,93,1.0007181710969593,-0.0001534773212377308,2.2406874773621628e-5
1,94,1.0007179490294877,-0.00023059000527236046,0.0004115231431126478
1,95,1.000717122745764,-0.00031607687294775265,0.0010575058529851446
1,96,1.0007742578074055,-0.0002833879613244636,0.0018127511655642366
1,97,1.0009589717617708,-0.0010363580597902646,0.00347203641261427
1,98,1.0002751561902512,-0.001096653263702444,0.00662798013607094
1,99,1.0007339501528416,0.0005580321257466934,0.0076525881471083464
1,100,1.0019124656352028,-0.007704935565565492,0.01641401059619661
1,101,0.99650408368022,0.0265179580590045,0.013987375155127069
2,1,1.0009077640128183,1.8619423267185054e-5,-5.529854000185329e-6
2,2,1.000908778395796,3.9091383669292573e-5,-3.497356143364655e-5
2,3,1.000908213310031,4.695722123506154e-5,-8.215053027132558e-5
2,4,1.0009080414203873,5.6423686812409535e-5,-0.0001402021597581386
2,5,1.0009078085232563,6.957085670431258e-5,-0.00021074268980420443
2,6,1.0009074542542367,8.582389914662568e-5,-0.0002969349329776027
2,7,1.0009070228321586,0.00010587818518255937,-0.00040111279114800607
2,8,1.0009064950516777,0.00013085987026471353,-0.0005260769457998125
2,9,1.0009058482053328,0.00016192723550472493,-0.0006746103524720517
2,10,1.0009050575878375,0.00020014889267602596,-0.0008493547126619979
2,11,1.0009041122353628,0.00024639526079017906,-0.0010519158947273172
2,12,1.0009030254792128,0.000301261474705742,-0.001282526336212937
2,13,1.0009018541628627,0.00036500197609055246,-0.0015391406371053683
2,14,1.0009007136346577,0.0004374994701886854,-0.00181719150669409
2,15,1.0008997948584328,0.0005182719133088289,-0.0021089880398838337
2,16,1.0008993682192802,0.0006065218063230159,-0.002403900562770367
2,17,1.0008997792030794,0.0007012164020100421,-0.0026883633909461427
2,18,1.0009014229233284,0.0008011612059182771,-0.002946617094026474
2,19,1.0009047105763818,0.0009050408807915945,-0.0031611924707535327
2,20,1.0009100226053085,0.0010114167798624973,-0.0033138446926580215
2,21,1.0009176656472047,0.0011187100968527226,-0.003386061737686137
2,22,1.00092782721483,0.0012252156295542468,-0.0033598360164227947
2,23,1.0009405407057297,0.0013292025596506722,-0.0032180868472878317
2,24,1.0009556499026273,0.0014291270551116688,-0.0029454380758942196
2,25,1.0009727826794859,0.0015239427332016417,-0.0025288892197045535
2,26,1.000991324811403,0.001613435115568827,-0.0019589093654147527
2,27,1.0010104123639372,0.0016984804629856145,-0.001230415698366916
2,28,1.0010289432216564,0.0017811324113306602,-0.0003438846815775817
2,29,1.0010456282297182,0.0018644921471691225,0.0006939826593672463
2,30,1.0010590702702507,0.0019523616590641846,0.0018698872621793964
2,31,1.0010678799307293,0.0020487253399418606,0.003164285453188058
2,32,1.001070803441481,0.002157144877640154,0.0045522462123031935
2,33,1.001066859574843,0.0022802023283435297,0.006004978961683363
2,34,1.0010554440974335,0.0024191221779717343,0.007491623056859257
2,35,1.0010363983782695,0.002573648474530749,0.008981176129954103
2,36,1.0010100120740526,0.002742163596744194,0.01044415588168205
2,37,1.000976984291096,0.0029219818059180234,0.011853911246864303
2,38,1.0009383330831882,0.0031097237802710774,0.01318745928795311
2,39,1.0008952976238794,0.0033016936728141053,0.014425864547050093
2,40,1.0008492230497747,0.003494198391664328,0.015554290102781294
2,41,1.0008014730632684,0.003683785251765658,0.016561691068977022
2,42,1.000753344082167,0.003867388089089986,0.017440463039087094
2,43,1.000706021913632,0.004042398556727559,0.018185817582065326
2,44,1.0006605371040256,0.004206671313460437,0.018795397248420043
2,45,1.000617763549624,0.004358492806889238,0.019268576460550618
2,46,1.0005784014358587,0.004496515780328728,0.01960627874931438
2,47,1.0005430025474888,0.004619692528428733,0.01981028011363858
2,48,1.0005119620791723,0.0047271910236467984,0.01988336088021025
2,49,1.0004855580314531,0.00481833493238736,0.019828561108378655
2,50,1.000463937251868,0.004892526672723461,0.01964976714528758
2,51,1.0004471640234183,0.004949215534101705,0.019350777591249677
2,52,1.0004351903139501,0.004987834810126672,0.018936454866091443
2,53,1.0004279160806857,0.0050078102141240585,0.018411374231660362
2,54,1.0004251355922795,0.005008509743032747,0.017781747415077567
2,55,1.0004266181562556,0.004989304157108841,0.017053313399104278
2,56,1.000432021355168,0.004949524288233258,0.016234356252818882
2,57,1.0004410066537128,0.004888587380540893,0.015332330200581768
2,58,1.0004531072214722,0.00480595150948788,0.014358449468459593
2,59,1.0004678988148874,0.004701318894837798,0.013322310411577056
2,60,1.0004848053957778,0.00457456763497205,0.01223873901239118
2,61,1.000503351089086,0.004426029234969431,0.011119389591537736
2,62,1.0005228820447918,0.004256364931163977,0.009982814319621999
2,63,1.000542927484492,0.004066887613799032,0.008841719882386972
2,64,1.000562812851665,0.0038593480933191595,0.007717583842179856
2,65,1.0005821528949215,0.0036362348491930352,0.006622007214056256
2,66,1.0006003325849149,0.0034004482168938166,0.005577595056310766
2,67,1.000617139959769,0.0031555226701626554,0.004591783592112851
2,68,1.0006321006788383,0.0029052031233432005,0.003685875620514714
2,69,1.0006452391536753,0.002653518478409824,0.0028600739292573315
2,70,1.0006562736770297,0.0024043188092832354,0.002132147233922295
2,71,1.0006654622879252,0.0021614384226842907,0.0014932685963928382
2,72,1.0006726929112626,0.0019281608543982162,0.0009565531017743963
2,73,1.0006784365496901,0.0017070534585463318,0.0005042848717125087
2,74,1.0006826986772022,0.0014997916840859505,0.0001457827191342348
2,75,1.0006859181590295,0.0013081417928141716,-0.00014286377222928347
2,76,1.0006880701557357,0.0011334440652541096,-0.0003544319226289546
2,77,1.0006898575898138,0.0009751875652397781,-0.0005175766709451704
2,78,1.0006913609204553,0.0008307154582623204,-0.0006239614944794723
2,79,1.0006927673801034,0.0006980774668329322,-0.0006992270378782923
2,80,1.0006934561858398,0.0005783477033364295,-0.0007287446371952157
2,81,1.0006936276722747,0.0004748224764650936,-0.0007402897980525202
2,82,1.0006932289709036,0.0003907137524697584,-0.0007265701075084108
2,83,1.0006929322160116,0.0003276787400928147,-0.0007285001049966343
2,84,1.0006924434992523,0.0002854456786027134,-0.000746327733366735
2,85,1.000691979171054,0.00026368607570017205,-0.000825806993176917
2,86,1.0006910305430594,0.0002604640488471877,-0.0009638414040637121
2,87,1.0006893886658268,0.00027115749220117506,-0.001198956202688914
2,88,1.0006872123974437,0.0002853078901773945,-0.0015091337799093964
2,89,1.0006841135698847,0.0002882146923472305,-0.00190363506658269
2,90,1.0006813931569694,0.0002667050606655724,-0.0023283464479756716
2,91,1.0006821572044153,0.00018573358371399537,-0.002742713393372169
2,92,1.0006864568413103,1.2188004915825235e-5,-0.003035359859174326
2,93,1.0007111860991036,-0.0003449675197794711,-0.0031039231038704827
2,94,1.0007198662003414,-0.0008111512406048585,-0.002741595032179701
2,95,1.0007759316880012,-0.0011419585521001577,-0.002111709104289365
2,96,1.0008396585529746,-0.0022590633854102683,-0.0003962843656310233
2,97,1.0007410916804977,-0.003727304837835831,0.0020039205002621964
2,98,1.0014943754409444,-0.0044833727812133755,0.003948450278643787
2,99,1.000398041466459,-0.010772673057196785,0.016145188541892043
2,100,0.9996159168043979,-0.012212575417172794,0.02180049615247228
2,101,1.0037641642603128,0.0515334026317517,0.0056252029492579415
3,1,1.0009078073106932,3.098661771682929e-5,-5.4416363575816924e-6
3,2,1.000909394816222,7.998757289552658e-5,-3.8622450533410015e-5
3,3,1.0009089183196287,0.00010630282679082896,-0.00010074425432724473
3,4,1.0009084656944205,0.00012907692983228113,-0.0001856437531327286
3,5,1.000908153728707,0.0001562486462888952,-0.0002900365012540144
3,6,1.0009077869090806,0.00018771460827798648,-0.0004165160869802199
3,7,1.000907303047406,0.00022258120617058298,-0.0005687236851691571
3,8,1.000906712929885,0.00026043039733805376,-0.0007498276665615564
3,9,1.000905984841312,0.00029992547318316993,-0.0009624141962900291
3,10,1.0009050971529971,0.0003382928075005521,-0.0012080498993661773
3,11,1.0009040496536294,0.00037123002307727296,-0.001485948481786391
3,12,1.000902874646341,0.00039294515545361836,-0.001792404883189421
3,13,1.000901653091408,0.00039639417867712474,-0.002119794662740191
3,14,1.0009005276021536,0.0003737113301759121,-0.0024566063733879187
3,15,1.000899709816616,0.000316839755965348,-0.0027873552476038073
3,16,1.0008994765599273,0.00021828811198980035,-0.003093608493979992
3,17,1.0009001529276234,7.186132358337599e-5,-0.003354849756842636
3,18,1.0009020847132801,-0.00012680526998452786,-0.0035500578560394703
3,19,1.0009056040731745,-0.00038001016075757914,-0.003658646610650112
3,20,1.000910997398334,-0.0006880209178848629,-0.0036615565770987896
3,21,1.0009184779805682,-0.0010492503921798414,-0.003541455520515938
3,22,1.0009281667919105,-0.001460400045524856,-0.0032830842820815408
3,23,1.0009400742349268,-0.001916441636865929,-0.0028731118606406857
3,24,1.0009540777017254,-0.0024104121051898918,-0.0023006135167963084
3,25,1.0009698867288057,-0.002933131371593268,-0.0015575379512318597
3,26,1.0009870014101163,-0.003473041814189419,-0.0006399148341276954
3,27,1.0010046767801275,-0.004016368674912144,0.00045113785246923057
3,28,1.0010219113988446,-0.0045477001850945135,0.0017081925397359659
3,29,1.001037473796921,-0.005050970380781662,0.003117080731795282
3,30,1.0010499759069846,-0.005510730864069713,0.004656834533333671
3,31,1.0010579973459572,-0.005913521729168848,0.006300780239452985
3,32,1.0010602410346996,-0.006249081741916671,0.008018046509838726
3,33,1.0010556934866794,-0.006511148642451646,0.009775847614178584
3,34,1.001043747257759,-0.006697693057134639,0.011541521126882573
3,35,1.00102426965614,-0.006810591733527326,0.01328460103808544
3,36,1.0009975979571728,-0.0068548716732527975,0.014978052558711817
3,37,1.0009644837621434,-0.006837734368041906,0.016599229515703993
3,38,1.0009259897704896,-0.006767553353577022,0.01812995849724837
3,39,1.000883380493766,-0.006652999527097599,0.01955651972541265
3,40,1.0008380047981358,-0.006502365543811255,0.020869018225255755
3,41,1.0007912070194975,-0.006323118688347067,0.022060926629919472
3,42,1.0007442470409393,-0.006121650592426075,0.023128254283369946
3,43,1.000698258418769,-0.005903197504269031,0.024069052906725993
3,44,1.0006542126222286,-0.005671869212415627,0.024882678484552136
3,45,1.0006129158977075,-0.005430765933504261,0.025569428333337772
3,46,1.0005750028453153,-0.005182124638754293,0.02613000437526628
3,47,1.0005409534149101,-0.004927501655665388,0.02656529506678571
3,48,1.000511099883681,-0.00466793702908136,0.02687606393760235
3,49,1.000485648874899,-0.0044041383673492215,0.02706281627938234
3,50,1.000464692658959,-0.004136620945750088,0.027125734390856214
3,51,1.0004482274586648,-0.0038658735440662666,0.02706453592116678
3,52,1.0004361669732014,-0.0035924616847083433,0.026878727321086232
3,53,1.000428352554356,-0.003317174513949424,0.026567327849142584
3,54,1.0004245715503626,-0.0030410843667741487,0.02612959887460172
3,55,1.0004245562992113,-0.0027656726383829652,0.02556444166485165
3,56,1.0004280123311102,-0.0024928298881380095,0.02487187681020733
3,57,1.000434602042837,-0.0022249471726930124,0.02405179352201507
3,58,1.000443988441642,-0.001964827000020693,0.02310659655868956
3,59,1.0004557969494146,-0.0017157153783669164,0.022038759621897185
3,60,1.000469679741402,-0.0014810877897410118,0.02085521825906924
3,61,1.0004852474687969,-0.00126460125110706,0.019562847567844432
3,62,1.0005021581839928,-0.0010697385359247085,0.01817534923665727
3,63,1.0005200137115464,-0.0008996941892577249,0.01670537576363002
3,64,1.0005384759338418,-0.0007569137363740287,0.015174840157714944
3,65,1.0005571323390816,-0.0006429972642861598,0.013602087415367657
3,66,1.0005756403145882,-0.0005582523058547329,0.01201675278605892
3,67,1.0005935833892938,-0.0005017370347849222,0.01044036149613559
3,68,1.0006106265757004,-0.0004710028977487736,0.008907064157430164
3,69,1.0006263998957738,-0.00046241715577999303,0.0074365405202696305
3,70,1.0006406372609555,-0.0004712232073737779,0.006061903139685028
3,71,1.0006531147488043,-0.0004919785646621498,0.004794793002515739
3,72,1.0006636916251244,-0.0005189048047195279,0.003661463807512739
3,73,1.0006723481904611,-0.0005467346084201683,0.002660775127705611
3,74,1.0006791654906764,-0.0005712246251456401,0.0018082858872837046
3,75,1.0006843620527486,-0.0005885654554276935,0.001089066008236169
3,76,1.0006880144047554,-0.0005949865221640387,0.0005091830233155644
3,77,1.0006904189324861,-0.0005891113007068026,4.252838889993013e-5
3,78,1.000692006625317,-0.0005746732970887661,-0.0003127979910533049
3,79,1.0006932684820975,-0.0005574724489584341,-0.0005874608692944634
3,80,1.0006939955279506,-0.0005377016885450036,-0.0007784773892446404
3,81,1.0006938170502235,-0.0005064633704015756,-0.0009127451656706673
3,82,1.0006925269523996,-0.0004497063371936271,-0.0009938474758951347
3,83,1.0006905296477155,-0.0003555358198171919,-0.0010697858506629784
3,84,1.000688212667622,-0.0002189310580693351,-0.0011674690321304376
3,85,1.0006858606930582,-4.176661072193729e-5,-0.001348093522497026
3,86,1.0006832847044276,0.0001667390911393738,-0.0016342697065935424
3,87,1.000680492946424,0.0003831972967876106,-0.0020638789397074337
3,88,1.000676223113494,0.0005764785675116471,-0.0026144444302744884
3,89,1.0006723391348746,0.0007096425987365632,-0.003275140339368252
3,90,1.000668393063178,0.0007328884280947003,-0.003952150783412385
3,91,1.0006660523923243,0.000609232711585909,-0.00458267860103312
3,92,1.000669894173213,0.00023668212447061277,-0.005013626949408294
3,93,1.000663021150179,-0.00037662496158189944,-0.0051921305105775035
3,94,1.0007182136304564,-0.0011361263813826222,-0.0052337135338588235
3,95,1.0007240884565296,-0.002465845311930543,-0.0042949028392692745
3,96,1.000594486150493,-0.0035908200242586747,-0.0032830334092769685
3,97,1.0010461776804986,-0.005227455908053059,-0.0029378949763117037
3,98,1.0006734624324154,-0.012334119674046674,0.0035669450238187093
3,99,0.9995152564084188,-0.016958255241444172,0.0059359888847200695
3,100,1.000573282953712,-0.0027562577987204,-0.0006259894804296692
3,101,1.0004909032186489,0.05518089654487393,-0.0019289488732860537
4,1,1.0009074490693624,5.294216875270849e-5,-6.7175821706203044e-6
4,2,1.0009092520427192,0.00013669508514832482,-4.596309950290791e-5
4,3,1.0009089981967243,0.0001941992601586022,-0.00012061462843553768
4,4,1.0009085689979953,0.00024361933595854466,-0.00022636289366559717
4,5,1.0009081044724997,0.00029659769861528797,-0.00035823589947995703
4,6,1.0009077604717542,0.0003587393018717217,-0.0005144069428757116
4,7,1.0009073804639983,0.0004311009380236789,-0.0006971536774050585
4,8,1.000906899839234,0.0005136817191696621,-0.0009089556244002317
4,9,1.0009063377476946,0.0006058951316545539,-0.0011498050072394877
4,10,1.0009056964921135,0.0007053788005629866,-0.0014173194060451374
4,11,1.0009050020659123,0.0008077452517382137,-0.0017054344343897384
4,12,1.0009043145673806,0.0009068776758688711,-0.0020040800439844546
4,13,1.0009037316564455,0.0009955113481735047,-0.0022986706209782745
4,14,1.0009033937205722,0.0010660926403166762,-0.0025710568497050094
4,15,1.0009034779649253,0.0011117553861768443,-0.002800412520296073
4,16,1.0009041851946572,0.0011272009130492905,-0.0029653034717792557
4,17,1.0009057175871703,0.0011092181719289575,-0.0030450856270073674
4,18,1.0009082562136211,0.0010566667624967883,-0.003021591441021089
4,19,1.0009119417455272,0.0009699468471636752,-0.002879397117847387
4,20,1.0009168678384233,0.000850209936885333,-0.002605935214233004
4,21,1.000923085169717,0.0006986935463919967,-0.0021904096290198314
4,22,1.0009306127430464,0.0005165434595336269,-0.0016232648965359274
4,23,1.0009394393192053,0.00030529552876405595,-0.0008955327308257387
4,24,1.0009495019715648,6.79156798257226e-5,3.7649666378517713e-7
4,25,1.0009606356356406,-0.00018997628085882872,0.001069584475413595
4,26,1.0009725045081195,-0.00045917178069387703,0.0023125240197091976
4,27,1.0009845378090017,-0.0007266284871585191,0.0037232642111213773
4,28,1.0009958893400766,-0.0009761033235350924,0.005287831150679092
4,29,1.001005453342188,-0.0011896524514588042,0.00698415910697703
4,30,1.0010119449625177,-0.0013497345933010643,0.008782780621116145
4,31,1.00101405355669,-0.001441465079253505,0.010649279766553131
4,32,1.001010617088202,-0.0014544703293452401,0.012546863679676975
4,33,1.0010007949544426,-0.0013839475863129855,0.014439621234895839
4,34,1.0009841714946393,-0.0012307708946760452,0.01629469757877016
4,35,1.0009608060633257,-0.0010007801566398722,0.018084314161111063
4,36,1.0009311913789072,-0.000703528415247465,0.019786262104144577
4,37,1.0008961866962376,-0.0003508379748325057,0.02138432591023167
4,38,1.0008568950687793,4.457452709012651e-5,0.02286746351833846
4,39,1.000814568846601,0.00047021316837006933,0.024229406642398907
4,40,1.0007704899293026,0.0009146049707228935,0.025467373515833034
4,41,1.0007259096362775,0.0013677766568387483,0.026581575230777484
4,42,1.0006819682539787,0.0018214729178475432,0.027573980387511837
4,43,1.0006396823578656,0.0022691637686145442,0.028448052170948455
4,44,1.0005999012348294,0.002705925729845846,0.029207721862311894
4,45,1.0005633285069888,0.0031282330508744117,0.029857408653391704
4,46,1.0005304992731396,0.0035337229829609895,0.03040117532815377
4,47,1.00050181823741,0.0039209408965623655,0.03084297593794564
4,48,1.000477543486564,0.004289110005741593,0.031185914109708432
4,49,1.0004578284177175,0.004637903132644031,0.03143264866807302
4,50,1.000442704864842,0.004967257811044328,0.03158468503909155
4,51,1.0004321223024393,0.005277186393034294,0.031642887388394186
4,52,1.0004259290399429,0.005567638097127067,0.03160677090694915
4,53,1.0004239064643512,0.005838334110444247,0.03147509166607289
4,54,1.0004257512438708,0.00608866991625063,0.031245166526324402
4,55,1.0004311046888894,0.006317561720495914,0.030913524264919414
4,56,1.0004395418595666,0.0065233947848742715,0.0304753705389235
4,57,1.0004505967743773,0.0067038842130271075,0.029925268486915565
4,58,1.0004637660907718,0.006856101081745498,0.02925699882791018
4,59,1.0004785293455523,0.006976379308363055,0.02846415839130919
4,60,1.000494374346127,0.007060481409504717,0.027540832345001827
4,61,1.0005108064661432,0.007103611831339982,0.026481791647870928
4,62,1.000527398452553,0.0071007951730991305,0.02528455525414714
4,63,1.0005437740715861,0.007047057284563213,0.02394846396236592
4,64,1.0005596771270406,0.006938041951106072,0.02247880386032841
4,65,1.0005749074024872,0.006770351854844106,0.020883448018178277
4,66,1.000589402507534,0.006542304646443719,0.01917970383272424
4,67,1.000603107326955,0.00625427802723046,0.01738666564627235
4,68,1.0006160740063956,0.00590933076740512,0.015535434022716444
4,69,1.0006282730381622,0.005513253730008572,0.01365526764010066
4,70,1.0006397439325097,0.005074719145151171,0.011787881329910356
4,71,1.0006503730836616,0.0046047822259048694,0.009966378651337614
4,72,1.000660111281326,0.004116422929827943,0.008234677434820656
4,73,1.0006687539632397,0.003623418809482276,0.006619778165235299
4,74,1.0006762484062968,0.0031392696076526466,0.005156891699723347
4,75,1.000682489751359,0.0026762974083094178,0.0038571435143849257
4,76,1.0006875134335989,0.0022458492966993893,0.0027399260534289116
4,77,1.0006911840084043,0.0018569488617639694,0.001798422707766305
4,78,1.0006936872446983,0.001512444245010976,0.0010340893189375712
4,79,1.0006954534072805,0.001207441468220408,0.00042104402853972443
4,80,1.000696950666952,0.0009377250044768166,-4.9887087039153884e-5
4,81,1.0006979009349266,0.0007113167325187933,-0.0004029172230177599
4,82,1.000697807306246,0.0005513771282336197,-0.0006449301981220955
4,83,1.0006965926177134,0.0004848702079869307,-0.0008153147078781744
4,84,1.0006948123001072,0.0005271175769811165,-0.0009544836946958293
4,85,1.0006932658997398,0.0006759732320197689,-0.0011329789199438134
4,86,1.0006924874723466,0.0009058413812035703,-0.0013951712816572318
4,87,1.0006915523726323,0.0011673590514971112,-0.0017756199120346741
4,88,1.0006911734952844,0.0013946888257494662,-0.0022541303498453485
4,89,1.000689489823879,0.0015094811661395906,-0.002770666669030023
4,90,1.0006894601805354,0.0014421164203109636,-0.003241823230544631
4,91,1.0006890064502498,0.0010928942406652493,-0.003522107055365459
4,92,1.0006805545977906,0.0004962656215112387,-0.003582350203077177
4,93,1.0007187530638861,-0.0003167470102246608,-0.003529759866665001
4,94,1.0006940397728967,-0.0017701892832684097,-0.0027650035159681196
4,95,1.0006546257675544,-0.003016661098855719,-0.0023361772143070934
4,96,1.000977136090772,-0.004271332127436232,-0.002017857460815453
4,97,1.0005769174944419,-0.009601422255414552,0.0025666326700588805
4,98,1.0000533120297543,-0.014185127723468105,0.0030779362701660704
4,99,1.0008853445562174,-0.010597910543016667,-0.00207102505719577
4,100,1.0012706229692259,-0.0015240466241974251,-0.0024832619266332372
4,101,0.9997754553222562,0.052076010477579524,-0.0005521569410599498
5,1,1.0009071717072464,7.103455421248314e-5,-7.670520567963178e-6
5,2,1.000909165022747,0.00019521702996986407,-5.288000486722198e-5
5,3,1.0009088812249636,0.0002871270690281541,-0.00013864654485534452
5,4,1.0009085784610934,0.00036482485958968944,-0.0002582069309883707
5,5,1.0009081466493175,0.00044001603475901516,-0.0004062724820477322
5,6,1.0009077142756375,0.0005205681123615365,-0.000578831468109733
5,7,1.0009073678409004,0.0006093679649267597,-0.0007735623686093211
5,8,1.0009069654611094,0.0007034734795270003,-0.0009899017993745959
5,9,1.0009064499821607,0.0007967350787480015,-0.0012244571875968558
5,10,1.0009058415720318,0.0008804031725779182,-0.0014697565117910295
5,11,1.000905145943302,0.0009427215459196784,-0.0017139223174437795
5,12,1.0009043875618544,0.0009697040742942283,-0.001941383791271439
5,13,1.0009036236544522,0.0009466629959954435,-0.002133131528219927
5,14,1.00090294965212,0.0008599833183832599,-0.002268814434495127
5,15,1.0009025033323102,0.0006988000466431115,-0.002328234176444737
5,16,1.0009024606858643,0.0004561315653193663,-0.0022937231645497698
5,17,1.0009030238462824,0.00012913335481439897,-0.002150805850566961
5,18,1.0009044110145517,-0.00028158439529839637,-0.0018886827014355024
5,19,1.0009068522016882,-0.0007732501875960744,-0.0014986111584953945
5,20,1.0009105995987182,-0.0013421992409719371,-0.0009725352428672498
5,21,1.0009159402154795,-0.0019844478433611273,-0.0003009210088475329
5,22,1.000923192738489,-0.002695167670831505,0.0005274595212618539
5,23,1.000932661299647,-0.003467159051094708,0.0015250562426711422
5,24,1.0009445368484873,-0.004288902502043277,0.002702544398116938
5,25,1.000958765959022,-0.005143025363889122,0.0040657643402091945
5,26,1.0009749164771882,-0.006005888141826476,0.005611712352602256
5,27,1.0009920928909863,-0.006848666083867374,0.007326518823601782
5,28,1.0010089276352978,-0.007639870034560265,0.009184317136897949
5,29,1.0010237000880886,-0.008348855336994851,0.011149321794943257
5,30,1.0010345397830922,-0.008949495319690692,0.013178751859823
5,31,1.001039703250697,-0.009423138646140307,0.015227816283796028
5,32,1.0010378000153135,-0.009760187811065555,0.017253494324788055
5,33,1.0010279793240717,-0.00996013406265978,0.01921853172540683
5,34,1.0010099696117722,-0.010030280033947134,0.021092833969313274
5,35,1.0009840783706063,-0.009983683650037748,0.02285476941611134
5,36,1.0009510615909676,-0.00983684651710548,0.02449005480196963
5,37,1.0009120344765752,-0.009607602609539396,0.02599138870439098