TITLE="CMs_NON_Orthogonal Re = 10000.0"
VARIABLES = X,Y,Rho,U,V
ZONE
I = 101	J = 101
F=POINT
1,1,1.0009779744079856,2.127460616318118e-6,-2.7296512863065747e-6
1,2,1.0009790254437274,5.6245862576297e-6,-1.75309359850642e-5
1,3,1.0009789651634275,6.0038210978040035e-6,-3.6661164069995695e-5
1,4,1.0009792512800966,7.015543336289004e-6,-5.885066998799096e-5
1,5,1.0009795574072808,8.153638419919247e-6,-8.559893620732789e-5
1,6,1.0009798727643084,9.205131811258635e-6,-0.00011789528745968234
1,7,1.0009802228035527,1.0006071139223952e-5,-0.00015656199548713236
1,8,1.0009806211988783,1.032011330729764e-5,-0.00020269005923857685
1,9,1.0009810595569084,9.764634537858003e-6,-0.00025733013628636805
1,10,1.0009815210639441,7.78372996516325e-6,-0.00032161957574787026
1,11,1.000981980210091,3.6394649605022084e-6,-0.0003963492239012299
1,12,1.0009824117780244,-3.5977521949143535e-6,-0.0004820030207269425
1,13,1.0009828001449177,-1.5041908346524188e-5,-0.000578268921456058
1,14,1.0009831543521364,-3.1959719965912e-5,-0.0006840237206950821
1,15,1.000983525118171,-5.571835591547862e-5,-0.0007968869651289825
1,16,1.000984022645873,-8.769586335548332e-5,-0.0009132786116253714
1,17,1.0009848272462127,-0.0001291797973192225,-0.0010281742915760482
1,18,1.000986188516727,-0.00018125160551503555,-0.0011353721597246926
1,19,1.0009884062057721,-0.00024469548318387064,-0.0012275266000851023
1,20,1.0009917956443504,-0.00031992277055889544,-0.0012965926643835905
1,21,1.0009966394626322,-0.0004069352514375596,-0.0013340189174889559
1,22,1.0010031354537456,-0.0005053021457231603,-0.0013312162583149045
1,23,1.0010113451376648,-0.0006141612141982658,-0.0012797896424475937
1,24,1.0010211513639173,-0.0007322209436210642,-0.0011720068766376465
1,25,1.0010322257023818,-0.0008577801543900362,-0.0010011286723148934
1,26,1.0010440097414999,-0.0009887592263647506,-0.0007619839061142223
1,27,1.001055711530599,-0.001122766135328386,-0.0004514380008827877
1,28,1.0010663271809848,-0.0012571926686975288,-6.898440686902904e-5
1,29,1.0010746942835893,-0.0013893468731338296,0.0003829047000139256
1,30,1.0010795791463836,-0.0015166026019869606,0.0008985118762251835
1,31,1.0010797872499164,-0.0016365678834188526,0.001468980601901246
1,32,1.0010742843079123,-0.0017472552649542847,0.0020826325622443063
1,33,1.001062309968641,-0.0018472216536632529,0.002725698106402188
1,34,1.0010434663399363,-0.001935622269060047,0.003383178965193159
1,35,1.001017764527429,-0.002012176730846414,0.004039844524498286
1,36,1.0009856229699907,-0.0020770694500489473,0.0046810659577053515
1,37,1.000947820208439,-0.0021308259189329265,0.005293544220916323
1,38,1.0009054150396774,-0.0021741854473993384,0.0058657537527318495
1,39,1.0008596491971695,-0.0022079920843333808,0.006388227715051261
1,40,1.0008118496416114,-0.002233105586514099,0.006853592228280872
1,41,1.0007633409985561,-0.0022503399369933966,0.007256504362499574
1,42,1.0007153770653459,-0.002260422067431756,0.0075934406080654365
1,43,1.0006690911591027,-0.0022639725426057957,0.007862473475655017
1,44,1.0006254672784372,-0.002261498447837179,0.008062991942376066
1,45,1.00058532479223,-0.0022533995587281936,0.008195462188303086
1,46,1.0005493178920486,-0.0022399788612049616,0.00826119243697979
1,47,1.0005179391663326,-0.002221459794665572,0.008262148998279532
1,48,1.0004915324640022,-0.002198002796923288,0.008200812374642773
1,49,1.0004703015584557,-0.0021697252022252734,0.0080800624801921
1,50,1.0004543266013077,-0.0021367176968601874,0.007903134172322416
1,51,1.0004435698639633,-0.0020990633815721393,0.007673552349819844
1,52,1.0004378922630575,-0.0020568510300718007,0.007395180713665031
1,53,1.0004370531508702,-0.002010192694359371,0.007072166889182609
1,54,1.0004407282522314,-0.0019592306600827512,0.006709079457857721
1,55,1.0004485034959583,-0.0019041549972980349,0.006310800813620922
1,56,1.0004598989043771,-0.0018451981552419982,0.005882762093369149
1,57,1.0004743577036463,-0.0017826575465564934,0.005430683700263272
1,58,1.0004912824047054,-0.0017168652399888618,0.004960957000355692
1,59,1.0005100199293242,-0.0016482301069844763,0.004480063707209085
1,60,1.0005299158876468,-0.0015771575577297131,0.003995249360977463
1,61,1.0005502941283395,-0.0015041469702566266,0.0035133246842224135
1,62,1.0005705319759326,-0.0014296135600930144,0.0030419909626984215
1,63,1.0005900283626283,-0.0013541138106211961,0.0025874833137949716
1,64,1.0006082975168007,-0.0012779844735840117,0.0021573221015160236
1,65,1.0006249162882004,-0.001201814776739862,0.0017558274336837692
1,66,1.0006396237068802,-0.001125795868403519,0.001389702032894995
1,67,1.0006522412311045,-0.001050525365636912,0.0010599079044372572
1,68,1.0006627717093126,-0.0009760553185596771,0.0007719251675074631
1,69,1.0006712822895096,-0.0009029832988824783,0.0005224486755963525
1,70,1.0006779699102262,-0.0008313290342029196,0.0003157515318602405
1,71,1.0006830720472835,-0.0007615741339069087,0.000144428319737997
1,72,1.0006869483459602,-0.0006938274133087278,1.1704427222137312e-5
1,73,1.000689854600242,-0.0006286842296988933,-9.255535457081997e-5
1,74,1.000691978809202,-0.000566271925698584,-0.00016500148416488517
1,75,1.000693599281625,-0.0005067753268015013,-0.00021724113526571724
1,76,1.0006951535394735,-0.00045040171990543427,-0.0002460571013244032
1,77,1.0006967450872581,-0.0003979775752530107,-0.0002628829563596481
1,78,1.0006980934206662,-0.0003500057765766935,-0.00026134012214795043
1,79,1.000698977091506,-0.000306500893366721,-0.0002507172391946978
1,80,1.0006996413635625,-0.000266673131716359,-0.00022420486697921968
1,81,1.0007004771980896,-0.00022982516487918354,-0.00019411480370455864
1,82,1.000701744238677,-0.00019514532734931614,-0.0001559759779397369
1,83,1.000703397998673,-0.00016224049359304138,-0.00012449137038344832
1,84,1.0007053178413328,-0.00013060225939546939,-9.530858448357472e-5
1,85,1.0007073887446964,-0.00010056268397584434,-8.404282667434777e-5
1,86,1.0007093688649182,-7.216116785324598e-5,-8.5199676094675e-5
1,87,1.0007113144839013,-4.726582140659048e-5,-0.0001137740538480216
1,88,1.0007127068151664,-2.7142641619566432e-5,-0.00015784192395961244
1,89,1.0007136185705459,-1.3677984290582359e-5,-0.00022496116065346636
1,90,1.000713816510174,-1.0978466427163534e-5,-0.0002876804635100819
1,91,1.0007132659878868,-1.465644221294084e-5,-0.0003392914509942427
1,92,1.0007218804460132,-4.570454766652335e-5,-0.0003262935753938224
1,93,1.0007251842810998,-0.00010682876044216775,-0.00017744842077121008
1,94,1.0007268679756434,-0.00019035568005462363,0.00019410914002817163
1,95,1.000726749460707,-0.0002825944827699577,0.0008411932327253911
1,96,1.0007888425178588,-0.00025843086672012956,0.0016197001117516509
1,97,1.000978644401346,-0.0010241954878036344,0.0033261586342532095
1,98,1.0002895260807245,-0.001091939621790419,0.006545549745316934
1,99,1.0007567708293215,0.0005608406217085083,0.007655073819527954
1,100,1.0019338512445015,-0.007684113962173053,0.01641641492441009
1,101,0.9965127995092462,0.02652877955826882,0.0140000024376645
2,1,1.0009767345211211,1.7595839509471122e-5,-5.628628823209422e-6
2,2,1.0009777562211424,3.8191626218382875e-5,-3.546158870672647e-5
2,3,1.0009771893702641,4.587738137738761e-5,-8.320197271432236e-5
2,4,1.0009770509133615,5.504582931396137e-5,-0.00014218261832729315
2,5,1.0009768474406306,6.735129253306449e-5,-0.0002141694077614648
2,6,1.0009765221563303,8.192805046608704e-5,-0.00030220196329352463
2,7,1.0009761260485872,9.916129795334283e-5,-0.0004085442044711165
2,8,1.0009756384889803,0.00011963520008384323,-0.0005359453206059165
2,9,1.0009750338229657,0.00014373468092226913,-0.0006871089464416747
2,10,1.0009742879117869,0.00017157624866991232,-0.0008644489049649942
2,11,1.0009733930703608,0.00020292358083203412,-0.0010692424836692355
2,12,1.0009723699866977,0.00023712426705214636,-0.001301218282957851
2,13,1.0009712861269033,0.0002730786097859629,-0.0015576616202612745
2,14,1.0009702729504064,0.000309278743153951,-0.0018330858300866653
2,15,1.0009695420864422,0.00034392047158647907,-0.002118662214162306
2,16,1.000969389226863,0.0003750842087089497,-0.0024024074336992905
2,17,1.0009701852006352,0.0004009559027992931,-0.002669320623932876
2,18,1.0009723456573703,0.0004200253144369163,-0.002902254762548773
2,19,1.0009762881233333,0.0004312080801632488,-0.0030826134061002364
2,20,1.0009823777857811,0.0004338650674167684,-0.003191436912179948
2,21,1.0009908771959395,0.00042774708519657654,-0.0032100399352642138
2,22,1.001001900876363,0.00041292645790845994,-0.0031207967964547553
2,23,1.001015383490231,0.0003897940634487914,-0.0029075243003018818
2,24,1.0010310533946378,0.0003591660854392066,-0.002556165153738953
2,25,1.0010484136598587,0.0003224891834924278,-0.0020553766287044867
2,26,1.0010667243574571,0.0002820606255749843,-0.0013975616187332561
2,27,1.0010850012779395,0.0002411523291657033,-0.0005797920344622914
2,28,1.0011020379026387,0.00020394892217895315,0.00039514202013699674
2,29,1.001116465949674,0.00017527604287948556,0.0015181851292207906
2,30,1.0011268469328005,0.0001601450466881757,0.0027737916793923096
2,31,1.001131796879302,0.00016318315799024395,0.004140494143042701
2,32,1.0011301217797306,0.0001880552639587332,0.005591939004339292
2,33,1.0011209505092886,0.000237010670776981,0.007098570074426099
2,34,1.001103829111886,0.00031065717565311243,0.0086294164283536
2,35,1.00107876933261,0.00040799395197620153,0.010153972540527242
2,36,1.0010462332628172,0.0005266587595093714,0.011643676558712304
2,37,1.0010070752140174,0.0006633063692329548,0.013073088572731942
2,38,1.0009624423636658,0.0008140262436618143,0.01442050647935156
2,39,1.0009136698365775,0.0009747280106649079,0.015668260679312946
2,40,1.0008621698082079,0.001141448876811971,0.016802589050651417
2,41,1.0008093457263993,0.001310567965055434,0.01781334813634938
2,42,1.000756516913019,0.0014789287903643161,0.018693529827505093
2,43,1.0007048773997749,0.0016438872496152212,0.019438753097236916
2,44,1.00065546210328,0.001803300552318312,0.02004674635186643
2,45,1.0006091435929094,0.0019554803154522953,0.0205168503132892
2,46,1.0005666250670642,0.002099119700387149,0.020849647644229672
2,47,1.0005284585730732,0.0022332149482920216,0.021046562764199434
2,48,1.0004950477663848,0.002356979434392806,0.021109716823534616
2,49,1.0004666745200221,0.0024697701236255963,0.021041615310798567
2,50,1.0004434996188136,0.002571011454555472,0.020845264535825907
2,51,1.0004255915264058,0.00266014339010728,0.020523884988940852
2,52,1.0004129183805388,0.002736563152878581,0.02008132878039777
2,53,1.0004053784736744,0.002799603961924536,0.01952171768224213
2,54,1.0004027798060233,0.0028484980817201156,0.018850228331842838
2,55,1.0004048760536242,0.002882396301249562,0.01807250161020202
2,56,1.0004113307232687,0.002900356177740835,0.017195899549741166
2,57,1.0004217659356205,0.00290141548141943,0.016228447402866445
2,58,1.0004357077584836,0.002884608126221538,0.015180708357279627
2,59,1.0004526588092826,0.0028491022134147443,0.014063893846199584
2,60,1.0004720201681947,0.0027942366179977696,0.012892558242673323
2,61,1.000493202234512,0.002719717649762302,0.01168136100695296
2,62,1.0005155166422457,0.002625647553498172,0.010448882461974639
2,63,1.00053834082239,0.0025127433203012,0.009212387984797706
2,64,1.0005609699257387,0.0023823069877975485,0.007993250084751805
2,65,1.000582845654967,0.0022363865541880396,0.0068090163253001915
2,66,1.0006033546717963,0.0020776385734698403,0.005681205490091036
2,67,1.0006221192300275,0.001909378100444831,0.004624076439591879
2,68,1.0006387276191295,0.0017352906767360437,0.00365579900699276
2,69,1.000653074537557,0.0015592958838460994,0.0027836297891906097
2,70,1.000665014041914,0.0013852640320826566,0.0020193667745258023
2,71,1.0006747090457475,0.001216958174191718,0.0013610418938779525
2,72,1.0006822551421093,0.0010574529220852488,0.0008128354186220281
2,73,1.0006880720967262,0.0009088106119160886,0.00036384476917440727
2,74,1.0006923394592782,0.0007725580715099678,1.2478782097899911e-5
2,75,1.0006953839374086,0.0006504564614173388,-0.00025791912699708
2,76,1.000697500032772,0.0005430600210970355,-0.0004528625377433487
2,77,1.000699372697052,0.00044806342874171,-0.0005924941096542508
2,78,1.0007010905331015,0.0003619360133829689,-0.0006794704473503871
2,79,1.0007024399634172,0.0002838185792088709,-0.0007276979879701935
2,80,1.0007029783652435,0.00021660093589172022,-0.0007355408069927101
2,81,1.0007029669364977,0.00016426164960506927,-0.0007225630533692545
2,82,1.000702657204715,0.00012955714104208,-0.0006982917863261508
2,83,1.0007024420673396,0.00011355244648078918,-0.0006942500492621112
2,84,1.0007020118313386,0.00011599990756949789,-0.0007255913130604733
2,85,1.000701259898494,0.0001365915526773798,-0.0008254465369821745
2,86,1.000699768417393,0.0001727077267926901,-0.0010046384248698537
2,87,1.0006971655278927,0.00021899266694820404,-0.001286864049709985
2,88,1.0006938591464032,0.00026401087087353617,-0.0016636985656267572
2,89,1.0006892942661696,0.00029125912836870427,-0.002127064561819857
2,90,1.000685319525386,0.0002846802989266375,-0.0026328783264636902
2,91,1.0006848198547553,0.00020822519801315354,-0.0031162626909393464
2,92,1.000689104197577,2.853491422274397e-5,-0.0034733427157032726
2,93,1.0007150428081384,-0.0003465701215276254,-0.003575380999676106
2,94,1.0007265574463375,-0.0008379756981456652,-0.0032278242537378296
2,95,1.0007883967733422,-0.0012090601438046551,-0.002567853644243638
2,96,1.0008571184272868,-0.0023714743420494605,-0.0007782644449577845
2,97,1.0007617717401798,-0.003880257746587046,0.00173699223113826
2,98,1.0015218504567376,-0.004670368573391697,0.0038335266528622645
2,99,1.000423084466983,-0.010877406393804422,0.016147589866940235
2,100,0.9996235017005176,-0.012213932520038075,0.02179990918749611
2,101,1.0037752316280366,0.051537979699213594,0.005627747125980555
3,1,1.000976765813138,3.272737649702075e-5,-5.51405436484011e-6
3,2,1.0009783631696694,8.225272228566103e-5,-3.9034824672823e-5
3,3,1.0009778852361029,0.00010933007333665902,-0.00010176659783603205
3,4,1.0009774645375433,0.00013378840036215082,-0.0001878349446270429
3,5,1.0009771823513947,0.00016306791844380428,-0.00029408282029005564
3,6,1.0009768420863114,0.00019711682765164283,-0.0004228922605807729
3,7,1.0009763929083848,0.00023555386986387087,-0.0005776422931419673
3,8,1.0009758489249325,0.0002784828717661811,-0.0007612391808564385
3,9,1.000975177219544,0.00032506033069892696,-0.0009759456418564924
3,10,1.000974360360348,0.00037310952184275775,-0.0012227824778861878
3,11,1.000973408528274,0.000419053568281013,-0.001500228025876643
3,12,1.0009723688260743,0.0004578813093879141,-0.0018036262521583448
3,13,1.0009713398506164,0.00048331343160831677,-0.002124226893633079
3,14,1.000970483351578,0.00048820278002601483,-0.0024491893560321712
3,15,1.0009700289331136,0.00046516877343402295,-0.002761590086776406
3,16,1.0009702661025615,0.0004073767096777324,-0.003041542392346254
3,17,1.0009715216274182,0.0003092950344267808,-0.0032672791433605484
3,18,1.0009741255595883,0.00016723147300770128,-0.0034169110522308307
3,19,1.00097837108998,-2.0485155416620645e-5,-0.0034695565970752663
3,20,1.0009844793281104,-0.00025366088148363555,-0.0034064719134003657
3,21,1.0009925739221204,-0.0005305701675019563,-0.0032112074707654143
3,22,1.0010026688168323,-0.0008482307872914204,-0.0028697812265198706
3,23,1.0010146601076921,-0.0012024279197684572,-0.0023703883355739733
3,24,1.0010283119779257,-0.0015874388837501265,-0.0017037741183104364
3,25,1.001043227372815,-0.0019956025491857203,-0.0008637204950529834
3,26,1.001058809683709,-0.0024170010161556972,0.00015169652148482407
3,27,1.0010742326985558,-0.0028395100651095145,0.00133905019560115
3,28,1.0010884364007762,-0.0032493369587526812,0.0026884017089750176
3,29,1.0011001648723334,-0.0036320182980402365,0.004183037990106268
3,30,1.0011080522575106,-0.003973728255809152,0.005799703549553083
3,31,1.0011107582481158,-0.004262656298701205,0.007509999929390301
3,32,1.001107123570947,-0.004490157707493004,0.009282134790282968
3,33,1.0010963189780857,-0.004651433734577974,0.01108328361051673
3,34,1.0010779443758702,-0.0047456289556318644,0.012881548611785794
3,35,1.0010520725492433,-0.004775401953785816,0.014647824267546421
3,36,1.0010192207435982,-0.004746131915093467,0.016356781860726262
3,37,1.0009802817858329,-0.004664971930717301,0.01798758453117272
3,38,1.0009364146805566,-0.004539925484156909,0.01952378489501375
3,39,1.000888939349128,-0.004379072464483136,0.020953180499182635
3,40,1.00083922548828,-0.004189995145996932,0.022267117680000666
3,41,1.0007886146434823,-0.003979414927196553,0.023460015948731042
3,42,1.0007383481376142,-0.0037530064622387557,0.024528539696652366
3,43,1.0006895346011397,-0.0035153566052843325,0.025471140160114838
3,44,1.0006431180796604,-0.003270017655392952,0.026287333554936766
3,45,1.0005998804463039,-0.0030196284822622157,0.026977395886817725
3,46,1.000560434274993,-0.0027660630457442196,0.027541817733730805
3,47,1.000525242824409,-0.0025106003347233215,0.027981160603554055
3,48,1.000494622891361,-0.002254085796770732,0.028295684880763904
3,49,1.0004687694734695,-0.001997097679828015,0.02848532871365376
3,50,1.0004477603650077,-0.0017400898942690976,0.028549500050088463
3,51,1.0004315788792673,-0.0014835408576388725,0.02848713307592274
3,52,1.0004201180496797,-0.00122807080086298,0.028296667477351198
3,53,1.0004131991308305,-0.000974572327878936,0.02797614196049487
3,54,1.0004105771385792,-0.0007242970758345546,0.027523435604156453
3,55,1.0004119545981114,-0.0004789613941946254,0.026936348968417338
3,56,1.0004169917811352,-0.00024078388632134726,0.02621324137119379
3,57,1.000425314511959,-1.2542377124270895e-5,0.025353001854697084
3,58,1.0004365320121285,0.00020247590302120407,0.024356266169022894
3,59,1.0004502350136844,0.000400507377841638,0.0232250603399141
3,60,1.0004660221053412,0.0005774985030981495,0.021964798759465783
3,61,1.000483481540398,0.0007292672703652102,0.020583167657152023
3,62,1.000502225445069,0.0008518519533424187,0.019093076827180203
3,63,1.0005218498709154,0.0009417926329328868,0.017510062413512335
3,64,1.0005419772982915,0.0009965910270015674,0.01585632684892126
3,65,1.0005621982591242,0.0010149977761485102,0.014155712399990139
3,66,1.0005821293733246,0.0009974231354105568,0.012439015694879525
3,67,1.0006013518864485,0.0009460417811520479,0.010735652101192303
3,68,1.0006194843038896,0.0008649037430307377,0.009080716934134736
3,69,1.0006361477838026,0.0007596364771639975,0.007502967211671537
3,70,1.0006510478105044,0.0006371861233740376,0.006034436820582328
3,71,1.0006639524134517,0.0005052935970311216,0.004695344297083319
3,72,1.000674723112992,0.0003717626765732075,0.0035072817199954644
3,73,1.0006833745959378,0.00024334750238544194,0.002475830496520828
3,74,1.0006900734721595,0.0001255543409155896,0.001607831448561095
3,75,1.0006950161703174,2.363163581944087e-5,0.0008937696563191845
3,76,1.0006983309698188,-5.8199564086486996e-5,0.00032811244965404
3,77,1.0007004633880825,-0.00012073278919383034,-0.00011126876775823458
3,78,1.0007020397460336,-0.00017055206295245616,-0.00043872310482087807
3,79,1.000703317621097,-0.000212759515626575,-0.0006766564605495907
3,80,1.0007038415892588,-0.00024296189436612658,-0.0008318154310741155
3,81,1.0007032045294795,-0.00024824420183289117,-0.000925630072164966
3,82,1.0007015563281425,-0.00021458059742193836,-0.0009799675981037777
3,83,1.000699444960031,-0.00013328245620484368,-0.0010422162749823471
3,84,1.0006972256286009,-2.9014526580892045e-6,-0.0011552522082533172
3,85,1.0006948520531054,0.0001720051486661542,-0.0013711033368697559
3,86,1.0006919539763732,0.0003800468672419405,-0.0017197334895394318
3,87,1.0006883887561993,0.0005972200594725384,-0.0022228447390426494
3,88,1.0006831196001644,0.0007916735895642204,-0.0028620615201087776
3,89,1.0006780904879422,0.0009219323103132071,-0.0036069300151492355
3,90,1.000673015546943,0.0009324241266458626,-0.004363292180007097
3,91,1.0006701899963677,0.0007813926547970164,-0.005046359775502647
3,92,1.0006739482380858,0.00036685747220285717,-0.005502010732915901
3,93,1.0006680634647218,-0.000297005744648993,-0.005670174332963063
3,94,1.000726134495223,-0.0011218931845336738,-0.005672199943678939
3,95,1.0007352039756252,-0.0025310292161703388,-0.0046600522924857375
3,96,1.000608073096725,-0.0037439338245215037,-0.003561233777814023
3,97,1.001062201428463,-0.005477026601500141,-0.00307221066500625
3,98,1.0006873610665477,-0.012572194050002388,0.003518071992250593
3,99,0.999516049087076,-0.017044972206774013,0.005898141381496307
3,100,1.0005838978152732,-0.0027438138012525963,-0.000637830834200956
3,101,1.0005078164215115,0.05519991052555107,-0.0019247612929540216
4,1,1.0009763741706459,5.232271837016489e-5,-6.776538783980313e-6
4,2,1.000978184345278,0.00013670476502701745,-4.633096586227113e-5
4,3,1.000977934735203,0.0001947372223804205,-0.00012154290524931414
4,4,1.0009775399516307,0.00024514074377004005,-0.00022838278414222577
4,5,1.0009771095945021,0.0002983914629131322,-0.00036188658925586845
4,6,1.0009767987175462,0.0003594050856326007,-0.0005198499011615213
4,7,1.0009764569292334,0.0004289471208161553,-0.0007040243836740402
4,8,1.0009760241845682,0.0005064328534671097,-0.0009162709157512717
4,9,1.0009755182838806,0.0005902024663718473,-0.001155860023135738
4,10,1.0009749399482257,0.0006765344846529106,-0.0014194748070789267
4,11,1.000974318514153,0.000759562157219436,-0.001699924104923357
4,12,1.0009737203272084,0.000831586227535892,-0.001985872939036044
4,13,1.000973250014737,0.000883675765895578,-0.0022614535095666194
4,14,1.0009730554663059,0.0009066514588861613,-0.0025072919611649133
4,15,1.0009733223741604,0.0008922817125932455,-0.002701540207211381
4,16,1.0009742607577465,0.0008344147218695043,-0.0028220737330353187
4,17,1.0009760813110313,0.0007297071995340299,-0.0028480419033718013
4,18,1.0009789702493999,0.0005776970744897795,-0.002761589713845093
4,19,1.0009830676737959,0.00038020613756834605,-0.0025480606877030946
4,20,1.0009884603144052,0.0001403573677207448,-0.0021958897843765636
4,21,1.0009951873542162,-0.00013831051256006996,-0.0016952846441466924
4,22,1.0010032521365635,-0.0004521599686438801,-0.0010375349399438605
4,23,1.0010126183834203,-0.0007969882041588438,-0.00021442400290003737
4,24,1.0010231752514913,-0.0011669417644002765,0.0007807254513453135
4,25,1.0010346717825653,-0.0015533093573258602,0.0019516110561321046
4,26,1.0010466390218848,-0.0019437602465810565,0.0032964839153406663
4,27,1.0010583308675753,-0.0023224315435075374,0.00480645861030607
4,28,1.0010687047894191,-0.002670976284325795,0.006464123447784967
4,29,1.001076476075569,-0.002970428422046022,0.008244018401005521
4,30,1.0010802397610483,-0.0032034792895209337,0.01011392542778422
4,31,1.0010786553610154,-0.0033566263785460974,0.01203778590376584
4,32,1.0010706273047127,-0.0034216732971698686,0.013978461689090196
4,33,1.001055462742769,-0.0033963064085724523,0.015900893452956637
4,34,1.0010329422336244,-0.00328373950080448,0.017773964318487954
4,35,1.0010033370237374,-0.0030916711121102445,0.019572128021678712
4,36,1.0009673372539136,-0.0028308737215559402,0.021275536746279546
4,37,1.000925969787261,-0.0025137448830496547,0.022870191434222382
4,38,1.000880466224578,-0.0021530314213567157,0.02434695907626071
4,39,1.000832171976094,-0.0017608592830583858,0.025701098900995194
4,40,1.0007824292982999,-0.001348081420797575,0.026930976926316456
4,41,1.00073252782759,-0.0009239277714183318,0.028037599876474473
4,42,1.000683628387839,-0.0004958830051267057,0.029023448297707092
4,43,1.0006367605036388,-6.974006831291505e-5,0.029892257675199863
4,44,1.000592779887328,0.00035024583928801344,0.03064807232368332
4,45,1.0005523976866624,0.0007611375516709518,0.0312952850128021
4,46,1.000516154989376,0.001161080399814276,0.0318378684467839
4,47,1.000484466717277,0.0015490593191051548,0.03227960429214809
4,48,1.000457599951845,0.0019246768291643686,0.03262341393547951
4,49,1.000435721050992,0.0022879408588690415,0.03287170307117911
4,50,1.0004188711749566,0.002639080962224796,0.03302572665811179
4,51,1.00040701114778,0.0029783690771294385,0.03308599809493591
4,52,1.0003999929529137,0.0033059656049569917,0.0330516552713064
4,53,1.000397601048307,0.003621756096061366,0.03292091501557842
4,54,1.000399522373572,0.003925213306570223,0.03269045437595028
4,55,1.0004053855648047,0.004215236506647789,0.03235592855571546
4,56,1.0004147348190862,0.004490030790047853,0.031911452453431265
4,57,1.000427070105495,0.004746958825420529,0.03135023964436822
4,58,1.0004418320252912,0.004982472924075752,0.030664366491343086
4,59,1.0004584458058967,0.005192030563600475,0.029845604876084623
4,60,1.0004763233121305,0.005370162082941427,0.028885748327611673
4,61,1.0004949087757213,0.005510547776326388,0.0277776342923576
4,62,1.0005136977599463,0.005606337029165499,0.02651633300625643
4,63,1.0005322713857248,0.005650493677352263,0.025100084324180757
4,64,1.0005503199953074,0.005636437933067271,0.023532500058133097
4,65,1.0005676416969134,0.005558669135266804,0.02182263344486385
4,66,1.0005841541282317,0.00541363051623634,0.01998801282218896
4,67,1.000599834405924,0.00520038206710745,0.018052528967198223
4,68,1.0006147215628765,0.004921316832224075,0.01604987072727072
4,69,1.0006288148981237,0.004582432805983678,0.014017843119852312
4,70,1.0006421062814363,0.004193407581163486,0.012001977798793773
4,71,1.0006544703722662,0.003767076955495159,0.01004592028844504
4,72,1.0006657635452185,0.003318641414043154,0.008195964945742373
4,73,1.0006757569948277,0.0028641879855476385,0.006488530193468181
4,74,1.000684342162575,0.002419268899090446,0.00495662361561093
4,75,1.0006914320494056,0.0019982020886219385,0.0036174474974956907
4,76,1.0006969682007014,0.0016139341391953567,0.0024835751776918053
4,77,1.0007008548217582,0.0012748152637583414,0.0015504954689464611
4,78,1.0007034945843594,0.0009798092245138557,0.0008070182998550103
4,79,1.0007055373309857,0.0007212863076803005,0.00022820400232704876
4,80,1.0007072124780354,0.0004989619502764749,-0.00020327495892148885
4,81,1.0007079231656668,0.00032993662052105226,-0.0005063872339921357
4,82,1.0007072234817216,0.00024364054702613196,-0.0007024804609815377
4,83,1.0007054937881343,0.00026518463509846976,-0.0008389712678069575
4,84,1.0007035662586539,0.0004017358251983735,-0.0009772136187088602
4,85,1.000702143324279,0.0006412010792882052,-0.0011873624039792135
4,86,1.000701295727819,0.0009492086600245721,-0.0015155382784307627
4,87,1.0006999009639466,0.001271673380261806,-0.0019773771497048303
4,88,1.0006986118191024,0.0015393278984813274,-0.002542547993738803
4,89,1.0006957353906083,0.0016683810919695498,-0.0031293002179063646
4,90,1.0006945767450826,0.001583683978489528,-0.0036459020414595757
4,91,1.000692976421553,0.0011869229015333842,-0.003931741395671683
4,92,1.0006843517888833,0.0005243023275186898,-0.003968025185182465
4,93,1.0007228606745924,-0.0003654104861988048,-0.0038569213094134655
4,94,1.000698484000768,-0.0018966322460543387,-0.003024521282346463
4,95,1.0006613580284252,-0.003224755271257598,-0.0025351459681298657
4,96,1.000985301410112,-0.004596728738880718,-0.0021356138864489166
4,97,1.0005842988839637,-0.009973041653005199,0.002476884158208071
4,98,1.0000562538912363,-0.01446908547075214,0.0029766368993777536
4,99,1.000894744326471,-0.010770856516262337,-0.002104861197896938
4,100,1.0012847928556161,-0.0015542113992114677,-0.0024757871781219878
4,101,0.9997837156771994,0.05209104101669227,-0.0005524361391474478
5,1,1.0009760529744098,7.311166360734956e-5,-7.733607959370501e-6
5,2,1.0009780504705252,0.00019827904160383487,-5.321500677194761e-5
5,3,1.0009777701783535,0.00029164205703579123,-0.00013936698753893873
5,4,1.000977511373057,0.00037216213113575,-0.00025959578561363984
5,5,1.0009771267739707,0.00045016672173120984,-0.00040849990635077074
5,6,1.000976746907731,0.0005330347826464146,-0.0005814985334843005
5,7,1.0009764677310202,0.0006239872467208187,-0.0007754687562642865
5,8,1.0009761543323652,0.0007204495276022137,-0.000988901024000419
5,9,1.0009757573038403,0.0008164530901265219,-0.0012173288644093843
5,10,1.0009753047973016,0.0009034448882733558,-0.0014520908358825117
5,11,1.0009748126061548,0.0009700858094326723,-0.0016800643971861561
5,12,1.0009743177771395,0.001003036329930802,-0.0018844938348725475
5,13,1.0009738873541896,0.0009884044706114444,-0.002045415926510012
5,14,1.0009736191199734,0.0009134961128077492,-0.002141896005757534
5,15,1.0009736424777869,0.0007685322087830923,-0.0021536147084076154
5,16,1.0009741119807603,0.0005478064530315758,-0.0020632517558896485
5,17,1.0009751935343838,0.0002498699319326151,-0.0018570353927287735
5,18,1.0009770548611296,-0.0001233448188918139,-0.0015249692451137825
5,19,1.000979865150487,-0.0005680905880911016,-0.0010588657738234799
5,20,1.0009838117503802,-0.0010803020659755913,-0.0004506978247156502
5,21,1.00098911706682,-0.0016562083655557273,0.0003095864589064067
5,22,1.0009960310333315,-0.0022915938301850446,0.00123390189573636
5,23,1.001004772130067,-0.0029799026152142493,0.0023348725729230345
5,24,1.0010154146274273,-0.0037099741909160113,0.00362208450002894
5,25,1.0010277555475666,-0.004464433389759019,0.005098577237227361
5,26,1.0010411945778408,-0.005219494585612911,0.006756883338604039
5,27,1.0010546846066046,-0.005946477242023795,0.008577657750615156
5,28,1.0010667688051451,-0.006614788763956048,0.010529569747286121
5,29,1.001075744667391,-0.007195702032340445,0.012572495891137164
5,30,1.0010798838702588,-0.007665953819387006,0.014661198381973412
5,31,1.0010776956924283,-0.008010308346974818,0.016750578465331255
5,32,1.0010681065754146,-0.00822258239584425,0.018799161017848204
5,33,1.0010505956857758,-0.008305173329715037,0.020772525517282352
5,34,1.0010251833095285,-0.008267457334784536,0.02264398774585174
5,35,1.0009924047587666,-0.008123638673233562,0.024395354897837507
5,36,1.0009531648812675,-0.007890526325906358,0.026015383230327815
5,37,1.0009086579797697,-0.0075856201577255665,0.027499250487445823