TITLE="CMs_NON_Orthogonal Re = 10000.0"
VARIABLES = X,Y,Rho,U,V
ZONE
I = 101	J = 101
F=POINT
1,1,1.0009927298159393,1.986285020442363e-6,-2.6980158587601303e-6
1,2,1.000993770928189,5.485792127959814e-6,-1.7379028197839985e-5
1,3,1.0009937114205982,5.8898752891658785e-6,-3.653447724564593e-5
1,4,1.0009939700535977,6.840849594789792e-6,-5.8812974225166195e-5
1,5,1.000994237901448,7.87711898630683e-6,-8.565465182458751e-5
1,6,1.0009945062841112,8.769398117205796e-6,-0.0001180822309569659
1,7,1.0009947999928837,9.31069811020651e-6,-0.00015695107163905594
1,8,1.0009951309053562,9.207829579981204e-6,-0.00020337702765296287
1,9,1.0009954899614069,8.004701203702643e-6,-0.0002584368960673336
1,10,1.0009958597568933,5.0514228076776745e-6,-0.0003233058563136647
1,11,1.0009962137155957,-5.067409930373579e-7,-0.00039882451523436845
1,12,1.000996525849519,-9.735809895028238e-6,-0.0004855412873251859
1,13,1.000996780745383,-2.3901687694622114e-5,-0.0005832329834045916
1,14,1.0009969885674401,-4.443446100533921e-5,-0.0006909007608604802
1,15,1.0009972014234274,-7.287263639233406e-5,-0.0008063319755477297
1,16,1.0009975305052483,-0.00011076931235183085,-0.0009261513851088045
1,17,1.0009981565192168,-0.0001595862688270263,-0.0010455574592570524
1,18,1.0009993299306288,-0.00022057190680116248,-0.0011585485661366644
1,19,1.0010013546002927,-0.00029466048724789695,-0.001257908637734184
1,20,1.001004557371033,-0.00038238193984716786,-0.0013355975235732147
1,21,1.001009243812597,-0.0004838069024003238,-0.0013829104279073547
1,22,1.0010156479663825,-0.0005985049131450876,-0.0013909341044028973
1,23,1.0010238789183086,-0.0007255316068100375,-0.0013508039413808511
1,24,1.00103387221314,-0.00086342619708159,-0.0012542163593663674
1,25,1.001045348178769,-0.001010237782297192,-0.001093821358236583
1,26,1.001057783924696,-0.00116357278092441,-0.0008638504945082406
1,27,1.001070402730549,-0.0013206824405519594,-0.000560634493315222
1,28,1.001082191962209,-0.0014785806469299054,-0.0001832246972859993
1,29,1.00109195592348,-0.0016341950609153762,0.00026622670873318677
1,30,1.001098405519368,-0.0017845317388041325,0.00078218309561371
1,31,1.0011002740175587,-0.0019268577834593071,0.0013558077711530898
1,32,1.0010964457259357,-0.0020588896673812435,0.001975274710056253
1,33,1.0010860782993953,-0.0021789527485609732,0.002626507679639389
1,34,1.0010686997532832,-0.0022860454157683572,0.0032940854990741474
1,35,1.0010442620458053,-0.0023798010010754557,0.003962282012869047
1,36,1.00101314414411,-0.002460374336379377,0.004615949719584768
1,37,1.000976106374827,-0.0025283017417198446,0.005241281336030042
1,38,1.0009342093871034,-0.002584358700734512,0.005826287605921191
1,39,1.0008887132414472,-0.0026294386509204976,0.006361098085145637
1,40,1.000840975118009,-0.002664454548239717,0.006838011773608045
1,41,1.000792356680764,-0.0026902708150651545,0.0072514329841733794
1,42,1.0007441513439432,-0.00270765762547794,0.007597662691908822
1,43,1.0006975309161725,-0.00271726924139269,0.007874661871866029
1,44,1.0006535145662692,-0.0027196358795133443,0.008081769614821861
1,45,1.0006129517123958,-0.00271517016552911,0.008219446672584133
1,46,1.0005765211439204,-0.002704178549629577,0.008289039385915653
1,47,1.0005447339991782,-0.002686880159564184,0.008292578395981144
1,48,1.0005179474338337,-0.0026634250782507337,0.00823263858893158
1,49,1.0004963730609284,-0.00263391638315077,0.008112207085608107
1,50,1.0004800948330974,-0.002598428566658864,0.00793464860627799
1,51,1.0004690743748959,-0.0025570289540503915,0.007703621199789253
1,52,1.0004631694391608,-0.002509792825124853,0.00742314174407425
1,53,1.000462132785271,-0.002456823620611997,0.007097505347673104
1,54,1.0004656327291883,-0.002398261276965201,0.006731448371271166
1,55,1.000473245314249,-0.0023343030011101413,0.006330002392919446
1,56,1.0004844818384817,-0.0022651979144971183,0.0058987706290553775
1,57,1.0004987752160017,-0.0021912745100257174,0.005443604689544026
1,58,1.0005155210970589,-0.002112907088686646,0.004971058138170252
1,59,1.0005340586113634,-0.002030566928796548,0.004487695284803519
1,60,1.0005537313744508,-0.0019447311575377245,0.004000899774858815
1,61,1.0005738602801035,-0.0018559988776035148,0.0035174746280617884
1,62,1.0005938273050963,-0.0017648860231539896,0.0030452340852143833
1,63,1.0006130337756833,-0.0016720897961716424,0.0025902664950472535
1,64,1.000631004425503,-0.0015780700693030327,0.0021602133147132214
1,65,1.0006473216785003,-0.0014835964221270458,0.0017590596044059338
1,66,1.0006617373121434,-0.0013889936413924355,0.0013937187483200866
1,67,1.0006740769454672,-0.0012950681269032714,0.0010645935689647015
1,68,1.0006843528346505,-0.0012020020938491322,0.0007775744071565701
1,69,1.0006926313823525,-0.0011106044303835208,0.0005285675373599958
1,70,1.0006991129220155,-0.0010210138100314055,0.00032253412897456207
1,71,1.0007040250358126,-0.000933895909329713,0.0001511027579246233
1,72,1.0007077227313705,-0.0008494467947070599,1.846212384009311e-5
1,73,1.000710456370206,-0.0007683943114126534,-8.663274639628909e-5
1,74,1.0007124111888084,-0.0006909388468157784,-0.0001596588233035657
1,75,1.0007138437356946,-0.0006173503888785755,-0.00021337598346426036
1,76,1.0007151841577462,-0.0005478400683430009,-0.00024324728900129713
1,77,1.0007165509100924,-0.00048325436628357635,-0.0002620038277954943
1,78,1.0007176823492012,-0.0004241032455050771,-0.00026195075618849973
1,79,1.0007183465123377,-0.00037043528524481097,-0.00025371695992148916
1,80,1.0007187764762915,-0.0003214257051909871,-0.00022899801483988776
1,81,1.0007193683651592,-0.0002763190359255872,-0.0002014541406916908
1,82,1.0007204093525575,-0.00023418894329175298,-0.00016510025006745584
1,83,1.0007218749017286,-0.00019458121933021687,-0.0001361436713900828
1,84,1.0007236550211909,-0.00015692312424524105,-0.00010862884401923489
1,85,1.0007256313472288,-0.0001215951286304802,-9.970764189906405e-5
1,86,1.0007275518183825,-8.870798882810195e-5,-0.00010204153902763859
1,87,1.0007294596043963,-6.03193078919597e-5,-0.00013207734941683965
1,88,1.0007308315741927,-3.77816192433506e-5,-0.00017555767129748463
1,89,1.0007317552336,-2.2907617648244076e-5,-0.0002413064992389777
1,90,1.0007320730927978,-1.95837114050268e-5,-0.00029956137306974356
1,91,1.000731763398314,-2.2988385230609928e-5,-0.0003454378520744935
1,92,1.0007407834027366,-5.375208275318981e-5,-0.0003244881952811893
1,93,1.0007445801563892,-0.00011447567069102265,-0.00016806878617359238
1,94,1.0007465461652905,-0.00019713032545863555,0.0002104470516900186
1,95,1.000746712498473,-0.0002883747049224413,0.0008621896234156823
1,96,1.0008085429523603,-0.00026348419192942453,0.0016429061191542975
1,97,1.0009974169509646,-0.0010273671727840795,0.003349044521199603
1,98,1.0003082477417231,-0.0010926411052035482,0.00656398302041158
1,99,1.0007755974520784,0.0005623099940201385,0.007661172247743544
1,100,1.0019520616321222,-0.007684902515579371,0.016416431570816976
1,101,0.9965323690658365,0.026527030035168216,0.013998096863478518
2,1,1.000991492117862,1.752862703264466e-5,-5.575038169681771e-6
2,2,1.000992504265444,3.821524336225079e-5,-3.5267059839384613e-5
2,3,1.0009919428631897,4.6251149455385135e-5,-8.321637432488607e-5
2,4,1.0009917685937286,5.553926402411967e-5,-0.00014266183767839064
2,5,1.000991520678873,6.79749164078718e-5,-0.00021514525265359913
2,6,1.0009911453911409,8.284424234562213e-5,-0.0003037314758590174
2,7,1.0009906881832686,0.00010055298695524733,-0.0004108025696412935
2,8,1.0009901259680944,0.00012172186198220195,-0.0005391906526830513
2,9,1.0009894321805997,0.0001468266131482747,-0.0006916707978427347
2,10,1.0009885812233976,0.0001761083675604503,-0.0008707520044123569
2,11,1.0009875628535627,0.00020947881790854222,-0.001077836506082437
2,12,1.0009863945999578,0.00024646831419798383,-0.0013128134767884632
2,13,1.0009851408382546,0.0002862056314305128,-0.0015731897572896546
2,14,1.0009839297340615,0.0003274487516450822,-0.0018537905847932652
2,15,1.0009829693254089,0.0003686677794981137,-0.002146200880225551
2,16,1.0009825519168842,0.0004081823268675224,-0.0024389207172214682
2,17,1.0009830472457844,0.0004443325086500637,-0.0027174257523099963
2,18,1.0009848756628306,0.00047563418192811836,-0.002964918997877264
2,19,1.0009884697862121,0.0005008810584148538,-0.0031629008501320153
2,20,1.000994223978511,0.0005191776349016029,-0.0032921539037147484
2,21,1.0010024449665988,0.0005299283796188712,-0.0033333509977340825
2,22,1.0010133028680706,0.0005328289239104689,-0.0032678885100332123
2,23,1.001026791788322,0.000527916378479441,-0.003078389792101346
2,24,1.0010426937340597,0.0005157065575615584,-0.0027495320850659376
2,25,1.0010605511640873,0.0004974039459187515,-0.002268770507223988
2,26,1.0010796439788214,0.00047511219322198336,-0.0016274582839574214
2,27,1.001098986285276,0.0004519505599051208,-0.000821825184468736
2,28,1.0011173482429132,0.0004319950770172054,0.0001459497421090654
2,29,1.0011333177230304,0.0004200164063490308,0.0012671703372023051
2,30,1.0011453944182083,0.00042103016311502,0.002526388928995032
2,31,1.001152119082096,0.00043972113504611905,0.0039019645044788133
2,32,1.001152215303996,0.00047984548156605874,0.005367111236829144
2,33,1.0011447302705547,0.0005437487688401842,0.006891611351510397
2,34,1.0011291371018827,0.0006321114060236439,0.008443666821802842
2,35,1.0011053903654432,0.0007439616849401951,0.00999184860434944
2,36,1.001073915051833,0.0008769153021293096,0.01150665415846984
2,37,1.0010355498387808,0.0010275572693214036,0.012961744034174947
2,38,1.0009914459735525,0.001191870365791535,0.014334611199566106
2,39,1.0009429587247771,0.0013656346021855398,0.015606897964473579
2,40,1.0008915314888345,0.0015447480592853942,0.016764290849052132
2,41,1.0008386053351488,0.0017254521317692168,0.017796221709712828
2,42,1.0007855390952143,0.0019044612004825122,0.018695384334800818
2,43,1.0007335652281293,0.0020790146544516093,0.019457198624857702
2,44,1.0006837533807575,0.0022468668396913314,0.020079289939653362
2,45,1.0006370063238779,0.002406239705113661,0.020560958042768532
2,46,1.0005940517932206,0.002555747932331617,0.020902812763124935
2,47,1.0005554613852052,0.0026943187994720686,0.021106336612976208
2,48,1.0005216527219716,0.002821103797973575,0.02117376202229738
2,49,1.0004929176305568,0.002935404381129094,0.02110771467867595
2,50,1.0004694219911643,0.0030365942518720355,0.020911374342795698
2,51,1.0004512367659728,0.0031240688228145307,0.02058812749134527
2,52,1.0004383283288705,0.003197186478203695,0.020142059104666158
2,53,1.0004305921280512,0.0032552514683083515,0.019577498324360506
2,54,1.0004278292523074,0.0032974772349952087,0.018899920996137083
2,55,1.0004297871017533,0.0033230131645310638,0.018115211948557888
2,56,1.0004361186099329,0.0033309327693729755,0.017231103363835907
2,57,1.00044643820173,0.003320317453557892,0.016255881162655698
2,58,1.0004602593333758,0.0032902698946054728,0.015200538856575475
2,59,1.000477078030706,0.0032400645134717074,0.014076515981290784
2,60,1.0004962828060309,0.003169175694548483,0.012898821567521436
2,61,1.0005172817371724,0.0030774870634601133,0.01168222503758202
2,62,1.000539376348185,0.0029653022832595295,0.010445727786850953
2,63,1.0005619491979612,0.002833574306671173,0.009206477303043298
2,64,1.0005842895835177,0.0026838479546956928,0.007986179350910753
2,65,1.0006058533638589,0.002518428599545845,0.006801940617554794
2,66,1.0006260252113741,0.002340210338729544,0.0056755199682803495
2,67,1.0006444487884583,0.002152733637274774,0.00462038725674973
2,68,1.0006607106976886,0.00195986894211526,0.0036549386471173614
2,69,1.0006747288431947,0.0017656920038131854,0.002785371859922961
2,70,1.0006863510148956,0.0015741724610229065,0.0020238447271472416
2,71,1.0006957597601833,0.001389144802750805,0.001367220104945937
2,72,1.0007030337740086,0.001213737056694736,0.0008203204498882149
2,73,1.00070860466016,0.0010500593928282186,0.0003710936817545883
2,74,1.0007126362881982,0.0008996104797215611,1.889622579147034e-5
2,75,1.000715466834006,0.000764104825874285,-0.0002539712956280402
2,76,1.0007173527253586,0.0006441501771665953,-0.00045169672419640534
2,77,1.0007189840337927,0.0005375857439131111,-0.0005954568016901321
2,78,1.0007204499827642,0.0004408995353751551,-0.0006866416750819968
2,79,1.000721573800937,0.0003530786090284193,-0.0007403871851057162
2,80,1.0007218868723236,0.0002768594305944779,-0.0007534998263493173
2,81,1.0007216519546136,0.00021620476323763762,-0.0007465190716701766
2,82,1.0007211064204782,0.00017390942044035783,-0.0007272757911681192
2,83,1.0007206905270567,0.0001510071432413191,-0.0007285976194266322
2,84,1.0007201045992955,0.00014714591786302723,-0.0007641384346685877
2,85,1.0007192810161676,0.00016189733108746272,-0.0008684624725469908
2,86,1.000717784122504,0.00019242355037444873,-0.0010504779864805686
2,87,1.0007152491623468,0.0002329908388966828,-0.0013345432468388186
2,88,1.0007120700476149,0.00027182718881284024,-0.0017090884763854726
2,89,1.0007077372884794,0.0002924845514364336,-0.002166050182095638
2,90,1.0007041084199073,0.0002797152521527209,-0.0026589695585508997
2,91,1.000704155985405,0.0001987185577419674,-0.003125872345743512
2,92,1.000709003360542,1.733429877601214e-5,-0.003464026210369204
2,93,1.000735460555276,-0.00035619896925434877,-0.0035504289190906027
2,94,1.0007471305271793,-0.0008439921768047255,-0.0031910540437460203
2,95,1.0008086718240814,-0.0012105307415751845,-0.0025250042993674813
2,96,1.0008768483480979,-0.002368715206178921,-0.000733901527101999
2,97,1.0007803101941153,-0.003871774490821056,0.0017794059892667718
2,98,1.0015398461670326,-0.0046510704555724315,0.0038667725767257462
2,99,1.0004405508932999,-0.010853691300543828,0.01616253860953019
2,100,0.9996437368972451,-0.012206017083284098,0.02180397746994571
2,101,1.0037959088364474,0.05153667700571297,0.005627857542867667
3,1,1.0009915220703223,3.233818489225931e-5,-5.493268725478706e-6
3,2,1.0009931109414207,8.215657619581875e-5,-3.9029742723274236e-5
3,3,1.0009926420432267,0.00011002530581265953,-0.00010230853424325956
3,4,1.0009921856136206,0.0001346583047148633,-0.00018934046154753977
3,5,1.0009918547426004,0.00016387037485289098,-0.0002966684910637823
3,6,1.0009914648753917,0.00019798054919491272,-0.00042662910244833544
3,7,1.000990958071564,0.00023659485282353476,-0.0005827705578813499
3,8,1.0009903419458717,0.00027969276200197677,-0.000768172280433532
3,9,1.0009895826913244,0.0003263660999620579,-0.0009852240754516049
3,10,1.0009886618239645,0.00037439627696978336,-0.0012350785647571084
3,11,1.000987586434203,0.0004201461162020398,-0.0015163799272020944
3,12,1.0009863995193682,0.00045855140568193094,-0.0018246768874190164
3,13,1.000985195621591,0.00048332079366085115,-0.0021514909702647048
3,14,1.0009841328048834,0.0004873245700925158,-0.0024843434913489645
3,15,1.000983437529057,0.00046316865287568306,-0.0028067545890764034
3,16,1.0009833978842186,0.0004038890221102985,-0.0030992833545796174
3,17,1.000984343535943,0.00030363169568826373,-0.003340479047545313
3,18,1.0009866155073155,0.00015815617656393308,-0.003508482292157928
3,19,1.0009905297075243,-3.493973775944593e-5,-0.0035820452075189723
3,20,1.0009963435687061,-0.0002762533491244262,-0.0035416398944203183
3,21,1.001004228831818,-0.0005647432686406019,-0.0033697142727025526
3,22,1.0010142536769484,-0.000897852249114952,-0.0030510407126949314
3,23,1.0010263666615564,-0.0012714498551245224,-0.0025726217206558932
3,24,1.0010403757005433,-0.0016795673403469846,-0.0019241972730520464
3,25,1.0010559144328859,-0.0021140455228585214,-0.0010987845426062926
3,26,1.0010724021296582,-0.002564313542385299,-9.391322191496497e-5
3,27,1.0010890118346878,-0.0030175135510890788,0.0010873570121562243
3,28,1.001104663944325,-0.003459080038258282,0.0024353042604874186
3,29,1.0011180618829945,-0.0038737615136690755,0.003933276473192691
3,30,1.0011277780891448,-0.004246953648708837,0.0055579030414674565
3,31,1.0011323924002904,-0.004566112907640204,0.007280469211809029
3,32,1.0011306547021834,-0.004821952995551781,0.00906866721287677
3,33,1.0011216436847465,-0.00500917085722645,0.010888988314699994
3,34,1.001104876978634,-0.00512657575685302,0.012708745470473688
3,35,1.0010803635686774,-0.005176667982285035,0.014498010214594858
3,36,1.0010485808029177,-0.005164828782096279,0.016230667236682678
3,37,1.0010104062040368,-0.005098339058863944,0.01788517782033674
3,38,1.0009670056799223,-0.004985413034434538,0.019444508243580464
3,39,1.000919723149894,-0.004834382637508228,0.020895992624711673
3,40,1.0008699639448089,-0.004653088904378368,0.022230633211937773
3,41,1.0008191111741687,-0.004448494228594774,0.023442608329734934
3,42,1.0007684493562663,-0.004226481536364237,0.02452842711696193
3,43,1.000719128316375,-0.0039918069037928276,0.025486449500617757
3,44,1.000672129363363,-0.0037481520906402156,0.02631614852773948
3,45,1.0006282662163826,-0.0034982496146247657,0.02701778649449041
3,46,1.000588177764209,-0.003244036697435112,0.02759186140523407
3,47,1.0005523477996685,-0.002986832659903087,0.028038949331636972
3,48,1.00052110871946,-0.0027275066336745,0.028359333700110494
3,49,1.0004946663274967,-0.0024666514025325796,0.028552972167659767
3,50,1.0004731057161753,-0.0022047310072148877,0.02861930172005504
3,51,1.0004564139997345,-0.0019422359697149813,0.02855727993619009
3,52,1.0004444861017978,-0.0016798028625046187,0.028365393658249253
3,53,1.0004371428198737,-0.0014183498585026897,0.028041725811758834
3,54,1.0004341383535968,-0.0011591625027799414,0.027584251566742147
3,55,1.000435172854225,-0.0009040027851635884,0.026990866664593608
3,56,1.000439905253925,-0.0006551418173922595,0.02626012014420792
3,57,1.0004479586646258,-0.0004154184346457376,0.0253910807270994
3,58,1.000458941664349,-0.00018818003426340294,0.024384713699686204
3,59,1.0004724422337992,2.2749873875200188e-5,0.0232433253100896
3,60,1.0004880587457283,0.0002132707957417515,0.021972821735785752
3,61,1.0005053754078912,0.00037916428353928935,0.02058123502823156
3,62,1.000524002880285,0.0005164550437066332,0.01908209336576499
3,63,1.0005435299292569,0.0006216826818405397,0.017491226009268484
3,64,1.000563574808408,0.0006923683958150557,0.01583146576942461
3,65,1.000583717249504,0.0007272807203921269,0.014126696829992486
3,66,1.0006035677476395,0.0007268442816529765,0.012408195874760284
3,67,1.0006226967796783,0.0006932144030946316,0.010704964626394572
3,68,1.0006407188029403,0.0006303860198343858,0.009052316334421398
3,69,1.0006572492325008,0.0005438699743791797,0.007478064337216485
3,70,1.0006719941031375,0.0004404334346587642,0.0060142561320654705
3,71,1.0006847243980888,0.0003275760042821426,0.004679779009547052
3,72,1.0006953061213313,0.00021283994177326754,0.003496277758946991
3,73,1.0007037581436315,0.0001027222811278026,0.0024679495144298664
3,74,1.0007102473331602,2.4305870578391657e-6,0.001602022287022856
3,75,1.0007149838913931,-8.313286273902252e-5,0.0008877765976827962
3,76,1.0007180957308521,-0.00014994938298423013,0.0003205933003695517
3,77,1.0007200174674347,-0.00019870429458418185,-0.0001224039178014011
3,78,1.0007213615819517,-0.00023583121638335003,-0.00045427102451666237
3,79,1.000722415234853,-0.0002666079653567809,-0.0006983421904218878
3,80,1.0007227388952795,-0.00028700529596192056,-0.0008600717443020283
3,81,1.0007219206349016,-0.0002841965106639612,-0.0009614080937658795
3,82,1.0007200785330077,-0.00024383387544627225,-0.0010222820798521763
3,83,1.0007177682229988,-0.00015679544805735876,-0.001090606864797976
3,84,1.0007153748619868,-2.1409758029541648e-5,-0.0012079513761552607
3,85,1.000712906338037,0.00015752221630355553,-0.0014276086111531538
3,86,1.0007100057613423,0.00036767469300233495,-0.001778110638203217
3,87,1.0007065294478479,0.0005835794260815804,-0.00228116784310656
3,88,1.000701398028325,0.0007724728674292574,-0.0029150811638227513
3,89,1.0006965738114857,0.0008938535600728565,-0.003648854347317696
3,90,1.0006917981134644,0.0008954184125764506,-0.004387425145891776
3,91,1.0006893522569977,0.0007398386601483091,-0.005050675863961031
3,92,1.0006936166390803,0.00032785802715659066,-0.005489315513877254
3,93,1.0006880392478745,-0.0003272964656078688,-0.005648433677636528
3,94,1.0007463277084314,-0.0011416451116662237,-0.00564901383041461
3,95,1.0007553015989115,-0.0025419783550930555,-0.004640361111281276
3,96,1.0006273178522267,-0.003748390321998102,-0.00354259238542288
3,97,1.0010818536252786,-0.005472107782839658,-0.003054792395756782
3,98,1.00070705532311,-0.012549119542001603,0.0035340799205936086
3,99,0.9995356756372858,-0.017016744747761728,0.0059139589335072485
3,100,1.000604712661743,-0.0027302160548516308,-0.0006280679204331034
3,101,1.0005272186727396,0.055200354294149136,-0.0019233992635432123
4,1,1.0009911531057682,5.211302287035972e-5,-6.76776479697267e-6
4,2,1.0009929570050038,0.00013715120578899754,-4.640704415585451e-5
4,3,1.000992714944425,0.0001966545020815033,-0.00012231985849614192
4,4,1.0009922865308076,0.0002476549793074075,-0.00023036355442740237
4,5,1.0009918071906252,0.00030114542447980976,-0.00036529302979634257
4,6,1.0009914428839768,0.00036274757168700217,-0.0005248417385609864
4,7,1.0009910427867257,0.00043343454965394954,-0.0007109266424055781
4,8,1.0009905392057814,0.0005125808196895184,-0.0009256552947968274
4,9,1.0009899462738783,0.0005985711836292127,-0.0011685113564001014
4,10,1.0009892646009277,0.0006878486247734535,-0.0014363490834324475
4,11,1.0009885220134855,0.0007747601872021447,-0.0017221627849449176
4,12,1.0009877822410433,0.0008518819585702721,-0.0020148294152199406
4,13,1.0009871479155346,0.0009106555272185843,-0.002298731011021854
4,14,1.0009867661125174,0.0009423278169420105,-0.002554764904720805
4,15,1.0009868226465848,0.000939013881838112,-0.0027613305945989736
4,16,1.0009875288672303,0.0008946638926667515,-0.002896414031679163
4,17,1.0009890993894779,0.0008056705936714832,-0.0029390169303658135
4,18,1.0009917293576216,0.0006709282922924322,-0.002870790183312814
4,19,1.0009955747353438,0.0004913543396965591,-0.002676268575749414
4,20,1.0010007451400293,0.0002691218296501379,-0.002342903810072501
4,21,1.0010073069004055,6.9960380685243854e-6,-0.0018599664145596752
4,22,1.0010152909169698,-0.0002918510983486235,-0.0012180341207587225
4,23,1.0010246863464731,-0.0006233797271707766,-0.0004084771990832495
4,24,1.0010354066649787,-0.0009817050234540037,0.0005755718963253505
4,25,1.001047226280843,-0.001358014151749747,0.0017379222080058183
4,26,1.0010597027381727,-0.0017398663011930632,0.0030769954364874455
4,27,1.0010721126683906,-0.002111260527578514,0.0045841768356899276
4,28,1.0010834246733409,-0.002453620581951949,0.0062423791297302675
4,29,1.0010923448358493,-0.0027476079288218723,0.008026401837503918
4,30,1.0010974336626786,-0.002975396526135774,0.009904107404577433
4,31,1.0010972913941396,-0.0031228796438030944,0.011839259889763924
4,32,1.0010907463556304,-0.0031812675540731665,0.013794286711393532
4,33,1.0010770243529359,-0.00314776611845629,0.015733491618767224
4,34,1.0010558321049001,-0.0030252947894403204,0.017625016688258312
4,35,1.0010273836273014,-0.00282147240927478,0.01944256297438032
4,36,1.0009923336744704,-0.0025471915626652623,0.02116559833116574
4,37,1.0009516955188515,-0.0022151256875167485,0.022779550267815578
4,38,1.000906706396982,-0.0018383969046609338,0.02427484464664067
4,39,1.0008587314937472,-0.0014295515606311737,0.025646426015559266
4,40,1.0008091422480712,-0.0009998639367688462,0.026892459476293297
4,41,1.000759261819248,-0.0005589557144609435,0.028013841195070863
4,42,1.0007102855272072,-0.00011465602921717674,0.029013011029439595
4,43,1.000663275251446,0.0003269517993410993,0.02989371181916891
4,44,1.000619115579794,0.0007613756509419274,0.030660026161508536
4,45,1.000578541696577,0.0011854891262984934,0.03131640192456823
4,46,1.0005421139407589,0.0015972880373188194,0.03186687143439923
4,47,1.0005102612773107,0.0019956382835065465,0.032315274112312546
4,48,1.0004832603292728,0.002380045395315077,0.03266457764912909
4,49,1.000461282366619,0.002750434128298109,0.03291722253129586
4,50,1.0004443697863774,0.00310695865018589,0.03307447798033392
4,51,1.0004324808274545,0.003449817391939463,0.03313685663629063
4,52,1.0004254621940138,0.0037790964507423115,0.03310347176447872
4,53,1.0004230901147124,0.004094602864374319,0.03297250288418393
4,54,1.000425041795163,0.004395728137018748,0.03274057097759346
4,55,1.0004309342519073,0.004681286978535255,0.032403272946296184
4,56,1.000440300189625,0.0049494038003337305,0.031954666674599314
4,57,1.000452627600672,0.005197367663429403,0.0313879274488986
4,58,1.0004673474275942,0.005421579365248478,0.030695137213602952
4,59,1.0004838763104582,0.005617474545274254,0.029868119751642302
4,60,1.0005016222195806,0.00577961489271549,0.02889883129509878
4,61,1.000520027419266,0.005901774930102197,0.027780331889037137
4,62,1.000538591641205,0.005977288456331136,0.026508103217457342
4,63,1.000556900888554,0.005999397269210784,0.02508081105461069
4,64,1.0005746558233324,0.005961911282873001,0.02350274145797582
4,65,1.0005916616139325,0.005859813793902052,0.02178347545112368
4,66,1.0006078460574985,0.005690118507449501,0.01994133564478973
4,67,1.0006231887192694,0.00545249417814439,0.018000561133345177
4,68,1.0006377332593244,0.005149942391376358,0.015995461311832646
4,69,1.0006514743394004,0.004789000756124317,0.013963648238601903
4,70,1.0006644049320939,0.004379769415319898,0.01195082751828006
4,71,1.0006763950760833,0.003935336548183612,0.0099997092540034
4,72,1.0006873067918234,0.0034709776655819035,0.008156306420945739
4,73,1.0006969116216002,0.003002686933873474,0.006455567449728472
4,74,1.000705109344882,0.0025457662747022424,0.004930157671422904
4,75,1.0007118194343838,0.0021141127368163684,0.0035957431859460296
4,76,1.0007170043333835,0.001720188991456686,0.0024648894509486257
4,77,1.0007205729632491,0.0013720853262422156,0.0015320772482629687
4,78,1.0007229123377284,0.0010688273382337713,0.0007870664641003339
4,79,1.0007246612475138,0.000802724940215428,0.00020442148191804663
4,80,1.0007260778419425,0.000572922104385166,-0.00023227112035360532
4,81,1.0007265858503853,0.00039579461135279574,-0.0005424150363537362
4,82,1.0007257186325071,0.0003006081057877152,-0.0007455223209216008
4,83,1.0007238183198508,0.00031302985395377075,-0.0008884453722264685
4,84,1.0007217207175432,0.0004409559446939421,-0.0010308175657993978
4,85,1.000720172434412,0.0006722960871060962,-0.0012434429805704683
4,86,1.0007192869986148,0.0009712658457508497,-0.0015716763019514393
4,87,1.0007179219235405,0.001281403750513895,-0.002031225221610927
4,88,1.0007167119520968,0.0015322509429508888,-0.002589613981038473
4,89,1.0007139525115327,0.0016423950123312533,-0.003165068509988311
4,90,1.0007130013134915,0.0015429397756600426,-0.0036671075560810876
4,91,1.0007117934038467,0.0011424365612445564,-0.003940802914316091
4,92,1.0007035337175403,0.000489410942454879,-0.003972040243197077
4,93,1.0007425547864275,-0.0003834817706760619,-0.003865863608869808
4,94,1.0007184747760658,-0.0018995274426747315,-0.0030440469770647515
4,95,1.0006809584636205,-0.003222051610161824,-0.0025629815019047298
4,96,1.0010055942921188,-0.00459598943452876,-0.002162137528735725
4,97,1.000604946213489,-0.009965527634552064,0.002459588366112994
4,98,1.0000747423288185,-0.014449556505770544,0.0029751074761347816
4,99,1.0009144663006262,-0.010740263608920988,-0.002095782863018086
4,100,1.0013047291863035,-0.001529956830346778,-0.0024691228158046177
4,101,0.999802791328533,0.05209681283800347,-0.0005510767429438581
5,1,1.0009908706616584,7.264174780653762e-5,-7.712196771747286e-6
5,2,1.0009928622029047,0.00019881076732689262,-5.3217367321855504e-5
5,3,1.0009925922392238,0.00029425462435713856,-0.00013998347607924262
5,4,1.000992300531106,0.0003756199994895736,-0.00026135682493859494
5,5,1.0009918685379748,0.00045384665865848587,-0.00041169686521707526
5,6,1.0009914339005204,0.0005372166140820558,-0.0005863929933906351
5,7,1.0009910919321445,0.0006292412515279451,-0.0007824928045323328
5,8,1.0009907038943504,0.000727228815150205,-0.0009987440618081515
5,9,1.0009902139973408,0.0008250543822973503,-0.001230951373450188
5,10,1.0009896465536092,0.0009140988203864905,-0.0014706675463464092
5,11,1.0009890152065004,0.0009830035768165699,-0.0017049556944335224
5,12,1.0009883541603384,0.0010184376619402176,-0.0019172329832345323
5,13,1.0009877281701107,0.001006558975988821,-0.0020876936388116584
5,14,1.000987234762786,0.0009347022572830024,-0.0021954777023331195
5,15,1.0009870052575196,0.0007929398726900903,-0.002220191771761348
5,16,1.0009871987380496,0.0005750801331942256,-0.002144202872908257
5,17,1.0009879897706826,0.0002788019160454589,-0.001953174301928419
5,18,1.0009895611438764,-9.510145482180722e-5,-0.0016363621795392118
5,19,1.0009921044036554,-0.0005440271564319543,-0.0011848523231026723
5,20,1.0009958352773172,-0.0010647678161755506,-0.000590128937974423
5,21,1.0010010078727913,-0.0016539426207524406,0.00015796026430041831
5,22,1.0010079066141933,-0.002307268490570516,0.0010711023245490862
5,23,1.0010167895942637,-0.00301783202910248,0.0021615878920294156
5,24,1.0010277789194257,-0.0037740228544864804,0.0034388739021567307
5,25,1.0010407250120412,-0.004558026939625447,0.004906269580762185
5,26,1.0010550769189157,-0.005345602312218599,0.0065569975791900095
5,27,1.0010698173682384,-0.006107488547824198,0.0083726361653015
5,28,1.0010834854549633,-0.006812296458061134,0.010322745591180729
5,29,1.001094331344216,-0.007430273605118267,0.01236779027547889
5,30,1.0011005384737166,-0.007936990978774424,0.014462675973784908
5,31,1.0011004988328098,-0.008316061733710902,0.016561983011749687
5,32,1.0010930123133706,-0.00856032902978961,0.018623568636024733
5,33,1.0010774407758318,-0.008671509354950955,0.0206121503026678
5,34,1.001053711724053,-0.008658633347939803,0.022500157871553433
5,35,1.001022298647107,-0.008535868749656285,0.024268595507856407
5,36,1.000984077093632,-0.008320226560157759,0.02590557488284242
5,37,1.0009402396458464,-0.008029559778619551,0.02740579519602633