TITLE="CMs_NON_Orthogonal Re = 10000.0"
VARIABLES = X,Y,Rho,U,V
ZONE
I = 101	J = 101
F=POINT
1,1,1.0006671440928712,-3.0617110353261362e-6,2.221014852756892e-6
1,2,1.0006663305034826,-3.731821388534324e-6,1.22313959295662e-5
1,3,1.000666813895126,-2.2860253850308383e-8,1.4907211494802873e-5
1,4,1.0006659527184392,1.8270569623715876e-6,8.623651613370123e-6
1,5,1.000664090368511,3.340347098058849e-6,-3.5031134306853985e-6
1,6,1.0006615976383297,5.883315875097764e-6,-2.4153871876520858e-5
1,7,1.0006584338208795,9.399273045281076e-6,-5.794171661873068e-5
1,8,1.0006544751187285,1.3769768244705305e-5,-0.00011010630375759703
1,9,1.0006497485027255,1.9427533421776716e-5,-0.00018698000637312103
1,10,1.0006442789896923,2.6935910858628687e-5,-0.0002980145609547777
1,11,1.0006379190899233,3.640482782512351e-5,-0.00045467501795648545
1,12,1.0006302745322437,4.720302004128882e-5,-0.0006695944746372874
1,13,1.000620686771156,5.772283783383257e-5,-0.0009536304881847253
1,14,1.0006083329681226,6.523251715479635e-5,-0.0013135351498601406
1,15,1.0005925426798838,6.600660671164682e-5,-0.0017476869331199654
1,16,1.0005733280102138,5.597247117253796e-5,-0.002243438597292016
1,17,1.0005519360147468,3.171819128996871e-5,-0.0027752752865711286
1,18,1.0005310811549801,-8.42757502074466e-6,-0.0033073573766950015
1,19,1.000514545404181,-6.381906749919866e-5,-0.0037983610080737436
1,20,1.0005062158998137,-0.0001316698341495551,-0.004208630332025833
1,21,1.0005090386607371,-0.00020795077108124794,-0.004505474695976844
1,22,1.0005244280724404,-0.0002884954446335483,-0.00466636934859727
1,23,1.0005522689516377,-0.0003698301347703808,-0.004678576225272889
1,24,1.000591286422118,-0.0004494846740524025,-0.0045375536302466905
1,25,1.0006394741028681,-0.0005259020583283184,-0.00424424936006818
1,26,1.0006944131236872,-0.0005981265380750056,-0.003803333994744979
1,27,1.0007534100302524,-0.0006654686448502804,-0.003221732895352659
1,28,1.0008135012597414,-0.0007272143220677446,-0.002508420376348601
1,29,1.0008714606599525,-0.0007823842958095777,-0.0016743827388365786
1,30,1.0009239232228675,-0.0008296585132255606,-0.0007337503230783959
1,31,1.000967595400601,-0.0008675152560370965,0.0002954780941886277
1,32,1.0009995015207842,-0.0008944551405171684,0.0013905907431851039
1,33,1.0010172628991658,-0.0009092880507408247,0.0025244537872369226
1,34,1.0010193961742617,-0.0009114433755998976,0.0036663368602010073
1,35,1.0010055498311676,-0.0009011821891116591,0.004784174970359533
1,36,1.000976585730007,-0.0008796221265435903,0.005846846178763394
1,37,1.0009344685022594,-0.0008485784816679622,0.006826817577466487
1,38,1.0008819863638687,-0.0008102838661761354,0.007701699046992589
1,39,1.000822379269545,-0.0007670763593055086,0.008455422038013099
1,40,1.0007589576969025,-0.0007211381040801118,0.009078073353090134
1,41,1.0006947910004793,-0.0006743244462085993,0.009565580195431845
1,42,1.0006324971189173,-0.0006280910188826116,0.009918504016026447
1,43,1.0005741433225628,-0.0005834930988524825,0.01014122630003585
1,44,1.000521229601335,-0.000541234556982462,0.010240649579072468
1,45,1.0004747331962116,-0.0005017354084707376,0.010225597912964818
1,46,1.0004351790140704,-0.0004652074057455521,0.010105851507506704
1,47,1.0004027230372465,-0.00043171934908619133,0.009891949898900312
1,48,1.0003772289251107,-0.00040125497455694055,0.009594575914512418
1,49,1.0003583374951222,-0.0003737522158950384,0.009224674693463898
1,50,1.0003455229741849,-0.00034913314344094543,0.008793048526115059
1,51,1.0003381395230644,-0.00032731606622787173,0.008310629044765712
1,52,1.0003354611423985,-0.00030822034134968046,0.007788131456200346
1,53,1.0003367134390724,-0.00029175963416312587,0.007236326260526987
1,54,1.0003411086671867,-0.00027782855814177784,0.006665652669369571
1,55,1.0003478701121082,-0.0002662927688210576,0.006086375574460406
1,56,1.0003562685691594,-0.0002569645731921476,0.005508156919583706
1,57,1.0003656379457373,-0.00024961388494534247,0.004940027048011411
1,58,1.0003754106828706,-0.00024393307960827068,0.004390059218823925
1,59,1.0003851151312457,-0.00023959778043499476,0.0038650890138842045
1,60,1.0003944031871326,-0.00023620407449541296,0.0033708053498826556
1,61,1.0004030199874843,-0.0002334053683447765,0.0029110599732343747
1,62,1.0004108199633772,-0.0002307845151187225,0.0024888248348801305
1,63,1.0004177097055182,-0.000228077572672597,0.002104726702647391
1,64,1.0004236614587856,-0.00022493985846785923,0.001759368569965147
1,65,1.0004286368526094,-0.00022126481990574536,0.0014504977092027313
1,66,1.0004326026280717,-0.0002168046688877115,0.0011771767664119125
1,67,1.0004354685867707,-0.00021155422873787548,0.0009348114771731075
1,68,1.0004371476978684,-0.00020528059203122741,0.0007215366767516348
1,69,1.0004375093956444,-0.00019803498158731648,0.0005306405049486691
1,70,1.0004364368585863,-0.00018970472850411227,0.0003597491761792163
1,71,1.0004338244299584,-0.00018053203577092223,0.0002008424490710529
1,72,1.0004296991838553,-0.00017076658612920923,5.2396685327785486e-5
1,73,1.0004241804277785,-0.00016116074011229874,-9.236780859830182e-5
1,74,1.0004174641803396,-0.00015253347425887295,-0.00023073072247221265
1,75,1.000409833451416,-0.0001456477740964135,-0.00036441857630433485
1,76,1.0004018532924808,-0.00014055791806581898,-0.00048521661115615586
1,77,1.0003943162769262,-0.00013682531177667892,-0.0005921288873193391
1,78,1.0003879260745168,-0.0001336337090609626,-0.0006766129781119472
1,79,1.000383029693733,-0.00013018244960124166,-0.0007397907181270383
1,80,1.0003797805601191,-0.00012554123513318756,-0.0007763391279929086
1,81,1.0003783403784747,-0.00011898623338823494,-0.0007922985173491911
1,82,1.00037891348404,-0.00010994889994973967,-0.0007875112144730402
1,83,1.000381514033058,-9.838032892104828e-5,-0.0007730962153144862
1,84,1.0003859628380805,-8.447246721597614e-5,-0.0007517031054124575
1,85,1.000391940052992,-6.91404385247325e-5,-0.0007355587135611935
1,86,1.0003988977024314,-5.3053197437901215e-5,-0.0007256515894417019
1,87,1.0004066209402633,-3.8879338806297794e-5,-0.0007305363762477204
1,88,1.0004142699390424,-2.888046150287403e-5,-0.0007408070347421974
1,89,1.0004220717536123,-2.487987646311971e-5,-0.0007532673207922699
1,90,1.0004303381857305,-3.1086899420413805e-5,-0.0007433979319257058
1,91,1.000438955288002,-4.173003164993988e-5,-0.0006982887518861321
1,92,1.0004583198673223,-7.57576151237866e-5,-0.000576901708087809
1,93,1.0004731326457494,-0.0001379488346871567,-0.00031164276946775036
1,94,1.0004836483031898,-0.0002156055523432589,0.00016843193857665048
1,95,1.0004915830805818,-0.0003034005772053043,0.0009090642721690244
1,96,1.000556080699519,-0.00027720390830372163,0.0017714604840072883
1,97,1.0007386823938749,-0.0010226854413722057,0.0035297295160505227
1,98,1.0000463571072864,-0.0010658682740447335,0.006734788642473512
1,99,1.0005201609148895,0.000612218550314092,0.007748671517221315
1,100,1.001686380979388,-0.007661870267647927,0.016404309874998062
1,101,0.996277569060835,0.02652044599106509,0.01399384029719451
2,1,1.0006676795296883,-1.247836333326167e-5,4.007680880134013e-6
2,2,1.0006669339675252,-1.2567387452413965e-5,1.685089620300993e-5
2,3,1.00066770448097,1.1972251084258753e-5,8.709187016080767e-6
2,4,1.0006661262317376,3.0380961585793735e-5,-3.024355937212683e-5
2,5,1.000663222828878,4.615008102076455e-5,-9.051364562075742e-5
2,6,1.000659664500274,7.111512692639131e-5,-0.00017433739955655074
2,7,1.0006550373133625,0.00010823463219224691,-0.0002945011121039104
2,8,1.000648868963141,0.00015888303309940046,-0.0004660633563435842
2,9,1.0006409263891842,0.0002283592499906863,-0.0007068473283056514
2,10,1.0006310017797841,0.00032332267512675373,-0.0010422663265976322
2,11,1.0006187356833112,0.00044768601538492715,-0.0015031122507885531
2,12,1.0006036162998293,0.0006002821594061929,-0.002120278938728242
2,13,1.000585089234807,0.0007732785386245204,-0.002914861838030149
2,14,1.0005628613042226,0.0009508476763225227,-0.003888773429804389
2,15,1.000537428917671,0.0011095163297361714,-0.005014573241617444
2,16,1.0005106293940633,0.001221844966294421,-0.006232275556325998
2,17,1.0004858042109377,0.0012634301613126124,-0.007453410892840584
2,18,1.000467274181527,0.0012204904335026902,-0.008576252169087065
2,19,1.0004592009746616,0.0010939452211116587,-0.00950397868489367
2,20,1.0004644529166729,0.0008977425356933486,-0.010161478182379752
2,21,1.0004840528496652,0.0006528820900939588,-0.010502079033209271
2,22,1.0005173775654892,0.00038076794574551744,-0.010506962350047548
2,23,1.0005627199359848,9.881527993947989e-5,-0.010177739602216618
2,24,1.0006178632883076,-0.00018101776625008812,-0.00952921285887466
2,25,1.0006804113645502,-0.00045160823952581465,-0.008582059248291394
2,26,1.0007478929666305,-0.0007090709162170293,-0.007359153842331347
2,27,1.0008176818785786,-0.0009509976423589591,-0.0058826776777093776
2,28,1.0008869441757327,-0.0011749490914845261,-0.0041742554960873205
2,29,1.0009526630948766,-0.0013771952200423234,-0.002255349533564978
2,30,1.0010117194531523,-0.0015517679335929596,-0.00015054463959804045
2,31,1.0010609631713645,-0.0016903127515970223,0.002109716269737666
2,32,1.0010973686420976,-0.001783209139527825,0.0044858852645526266
2,33,1.0011183417546565,-0.0018217364278027947,0.006929538953868659
2,34,1.001122111262339,-0.0018003922747326048,0.00938491402707758
2,35,1.0011080825312018,-0.001718431437279337,0.01179374681023213
2,36,1.0010769829220865,-0.001580155667589266,0.014099526184853016
2,37,1.001030791333512,-0.0013940485361040053,0.016252538330096485
2,38,1.000972415684468,-0.001171191399090997,0.01821215890295027
2,39,1.0009052985096571,-0.0009235272916514022,0.01994881973706949
2,40,1.000832967315168,-0.0006624022334250583,0.021443119489812465
2,41,1.0007587269969094,-0.0003976199320855633,0.022685306029962892
2,42,1.000685406846089,-0.00013700584731423686,0.023672835674703404
2,43,1.0006152978019731,0.00011361570826597556,0.02440924579546566
2,44,1.0005501030182429,0.0003501969137212126,0.024901757510615494
2,45,1.0004910298739493,0.0005701100511345196,0.02516063184447634
2,46,1.0004388227133842,0.0007717688765091605,0.02519743251008938
2,47,1.0003938946455604,0.0009542726932071557,0.02502509263935935
2,48,1.0003563571213212,0.0011171161673568322,0.024656840010072758
2,49,1.000326135381936,0.00125996976763981,0.024106805448666793
2,50,1.0003029664112457,0.0013825391888339425,0.023389409380727106
2,51,1.000286487779495,0.001484500479330427,0.022520224539985072
2,52,1.000276206741607,0.0015654983895400328,0.021515593219011635
2,53,1.0002715729308795,0.0016252111669036802,0.020393417671341542
2,54,1.0002719318479962,0.0016634448096634871,0.019172801300396242
2,55,1.0002765978909407,0.0016802732277497654,0.017874425130504953
2,56,1.0002848048967132,0.0016761540013430836,0.016520090590510655
2,57,1.0002957937810433,0.0016520598675603283,0.015132388235737641
2,58,1.0003087645836253,0.0016095212182892765,0.013734218546006961
2,59,1.0003229839132552,0.0015506631583517615,0.01234760577156809
2,60,1.0003377292444027,0.0014781074901098106,0.010993576620531274
2,61,1.000352409452298,0.0013948838523341522,0.009690155252429394
2,62,1.0003664812162898,0.001304212311092813,0.008453240256138646
2,63,1.0003795695490605,0.001209362810479031,0.007293870038547122
2,64,1.0003913386428684,0.0011134258674015325,0.006220741492939554
2,65,1.0004016100181548,0.0010192288985706882,0.005236639683796707
2,66,1.000410181640792,0.0009292572565170351,0.004342949309604869
2,67,1.0004169492009929,0.0008457981245189423,0.003534799288979731
2,68,1.0004217184312918,0.0007709524239009621,0.002807427390595382
2,69,1.0004244009596852,0.0007065238596846819,0.002149565285862891
2,70,1.0004248477493132,0.0006536220359383742,0.001552053872141402
2,71,1.000423088728242,0.0006122732298217002,0.0010002557459352973
2,72,1.0004192097506566,0.0005807731999564441,0.00048556069472154386
2,73,1.0004136457547794,0.0005550170016333917,-2.781301584582176e-6
2,74,1.0004069103966122,0.0005286548429844709,-0.0004636125002025351
2,75,1.000399685022088,0.0004952193477455646,-0.0008942913171981
2,76,1.0003925424327853,0.00045101290240209184,-0.0012797298622401116
2,77,1.0003862664150411,0.00039618779350438383,-0.0016105082501850598
2,78,1.0003814643723021,0.0003333594243250492,-0.0018739101661495402
2,79,1.0003784914422296,0.00026631390178296174,-0.0020699140347984236
2,80,1.0003770481933645,0.00020014765037300065,-0.0021966917262219586
2,81,1.0003768258952945,0.00014119078136097293,-0.0022664693997147827
2,82,1.0003775531819759,9.592881935130904e-5,-0.002291517130201854
2,83,1.0003794053467656,6.908432372989012e-5,-0.0023000216444299688
2,84,1.000382225163866,6.237549577730236e-5,-0.0023164842654740175
2,85,1.000386014901219,7.514851372246319e-5,-0.002374909277971126
2,86,1.0003904275134476,0.00010202363106512519,-0.0024949253119669556
2,87,1.0003948660828668,0.00013211060562763843,-0.0026929288954848788
2,88,1.000399748070099,0.00014882115373264878,-0.0029567347479435764
2,89,1.0004044258016165,0.00013671681851390907,-0.0032607243045594176
2,90,1.0004110624139806,8.787575996740585e-5,-0.0035626986171912716
2,91,1.0004228764298313,-2.1666194670203276e-5,-0.003803604069027278
2,92,1.0004395899705953,-0.0002134831846677117,-0.003909170074283377
2,93,1.0004774921145156,-0.0005761871277306156,-0.0037800359273433655
2,94,1.0004968637539922,-0.0010412193605565847,-0.003240413994692361
2,95,1.0005618238850205,-0.0013837823347664616,-0.00241546264503929
2,96,1.00062984918807,-0.0025146638550982343,-0.0004971790602863454
2,97,1.0005201211567802,-0.003941404413155116,0.0021176014366371012
2,98,1.0012786317283877,-0.004568263577879082,0.00419954115528802
2,99,1.0001693906465277,-0.010651677989414077,0.016347494113868502
2,100,0.999392734494463,-0.01212739247062216,0.02184612619624265
2,101,1.0035522541803321,0.05151715367652469,0.005633907500183185
3,1,1.0006671477520406,-2.107978495110271e-5,7.298313912574603e-7
3,2,1.0006665616185055,-8.94796700269954e-6,-4.255875874773234e-6
3,3,1.0006674518190883,5.781794697220468e-5,-5.081298226817257e-5
3,4,1.0006659110438332,0.00011223663743861256,-0.00014915482851454771
3,5,1.0006627011589426,0.00015405373399291815,-0.0002867437473188106
3,6,1.000659054960147,0.00021295126039235917,-0.00046126516866100864
3,7,1.0006546220187018,0.00030053191977123,-0.0006871541908426033
3,8,1.0006485753351733,0.00041918081024919565,-0.000986178798745577
3,9,1.000640551816435,0.0005791093514981933,-0.0013819724662725138
3,10,1.0006304280858398,0.0007941917042574563,-0.0019055912124608596
3,11,1.0006179716750536,0.0010696119295660264,-0.0025918894592174497
3,12,1.0006028173117434,0.0013936063895987492,-0.003469457562585337
3,13,1.000584609290447,0.0017336449795069945,-0.004542364345136369
3,14,1.000563333527248,0.0020370611340607505,-0.005776527753512196
3,15,1.0005397511385112,0.002239105315397638,-0.007091354730880897
3,16,1.0005158085407946,0.002279356958912533,-0.008369391808963688
3,17,1.000494559137942,0.00212130098161859,-0.009478051766462131
3,18,1.0004795392453234,0.0017650436934196641,-0.010301564006043613
3,19,1.0004737443536165,0.00124552519528732,-0.01076313565862654
3,20,1.000478951072907,0.0006177722277990657,-0.0108340533089003
3,21,1.0004955714377337,-6.146685060402318e-5,-0.010523997344080174
3,22,1.0005230611037634,-0.000746647659370928,-0.009867041605064734
3,23,1.0005603043277584,-0.0014079459024225873,-0.008905583761258563
3,24,1.0006059111542716,-0.002029666171619722,-0.007682381942220167
3,25,1.0006582066096148,-0.0026061587524504786,-0.006234202255001353
3,26,1.0007152094003389,-0.0031376503645087397,-0.0045912291427765975
3,27,1.0007746265620217,-0.0036267306676275564,-0.0027744980274914746
3,28,1.0008340396889812,-0.004074991544297366,-0.0007980993638804541
3,29,1.0008909732873614,-0.004479507408015936,0.0013289345892278748
3,30,1.000942817872133,-0.004830294769896741,0.003594723293972923
3,31,1.0009867174583404,-0.005110642199743317,0.005979747669310741
3,32,1.0010196815606935,-0.005300798462267973,0.008451525420817273
3,33,1.001038998272316,-0.0053835148094857075,0.010967017310771257
3,34,1.0010427299411087,-0.0053489994935494115,0.013475185064691397
3,35,1.0010301907264874,-0.005197539017901562,0.0159248333444474
3,36,1.0010020626507956,-0.004939243714068795,0.018268464198192492
3,37,1.0009603279733064,-0.004591605138197891,0.02046802788024196
3,38,1.0009078131072648,-0.004176008214429241,0.02249467346520863
3,39,1.0008478246788566,-0.0037144010811937115,0.024330406216965028
3,40,1.0007836138769686,-0.0032267767079996188,0.02596464133102651
3,41,1.0007181889737555,-0.002729755733356394,0.027394170007994427
3,42,1.0006539987977612,-0.0022360796778961136,0.028619085116100482
3,43,1.000593010870109,-0.0017548079996497544,0.029643015764471696
3,44,1.0005365688300942,-0.001291862653852085,0.030469624505645394
3,45,1.0004856164625648,-0.0008507707512203855,0.031103657022248914
3,46,1.0004406098861378,-0.00043338440482056393,0.03154816292794825
3,47,1.000401779255817,-4.057129890003111e-5,0.03180627395082236
3,48,1.0003690286693618,0.0003272414671479683,0.03187899568345
3,49,1.0003421873373035,0.0006696056580105937,0.031767527171101734
3,50,1.0003208817492848,0.0009857581534453035,0.03147148578758256
3,51,1.000304764843625,0.0012744100511107791,0.03099162367933787
3,52,1.0002933670309433,0.0015337074964006608,0.03032839215540359
3,53,1.0002863020930282,0.0017612685936997594,0.029484892760249355
3,54,1.0002831060302582,0.0019543916729901282,0.028465641887791576
3,55,1.0002834165623549,0.0021103130018680486,0.02727945651781781
3,56,1.000286806328783,0.002226605179158873,0.025938153859656456
3,57,1.000292932617913,0.002301547728693424,0.024458881211658783
3,58,1.000301374883222,0.0023345559172925886,0.022862415381550285
3,59,1.0003117594083033,0.0023264542898426303,0.02117438873398665
3,60,1.0003236197137906,0.0022797035396099246,0.019423043885052737
3,61,1.0003365099349306,0.0021983588067780746,0.01763906358301423
3,62,1.0003499069326627,0.0020879428770249533,0.015853147852000905
3,63,1.0003633195009112,0.0019550513518281107,0.014094659211436761
3,64,1.0003762287948164,0.001806962778237839,0.012389946807298357
3,65,1.000388183105224,0.0016510986624604085,0.010760361401160727
3,66,1.0003987554279181,0.0014946960235962072,0.009222334236991727
3,67,1.00040759727236,0.0013445633975080926,0.007785194672820417
3,68,1.0004143833202386,0.0012070465673516076,0.006453495783649143
3,69,1.000418861179524,0.0010875516753038066,0.0052244084906194355
3,70,1.0004208510496642,0.0009896537889357603,0.0040922290947757395
3,71,1.0004203252022557,0.0009138543974149003,0.0030458894385197444
3,72,1.000417415583218,0.00085642424543181,0.0020764748299223813
3,73,1.0004125083884419,0.0008082772814951083,0.0011750382429276988
3,74,1.0004062242288645,0.0007554916358334728,0.0003416527771840394
3,75,1.0003993473486887,0.000683723410937991,-0.0004186928549797606
3,76,1.0003926009792503,0.0005855467310726382,-0.0010905025805242083
3,77,1.0003866269926456,0.0004643873854476982,-0.0016601877158837763
3,78,1.0003819756352317,0.00033100967030902845,-0.0021163551478200456
3,79,1.0003790309825247,0.00019734382152256652,-0.002460584313305353
3,80,1.0003776621054807,7.490709212303822e-5,-0.0026985539977262473
3,81,1.0003772645088425,-2.2751879047274597e-5,-0.0028456638273493765
3,82,1.0003772472832644,-7.958259427623789e-5,-0.0029222571250828587
3,83,1.0003774627019586,-8.130945144569644e-5,-0.002965008869624336
3,84,1.0003782434579864,-2.121893201955185e-5,-0.0030196265736504736
3,85,1.000379926102249,9.663686609678712e-5,-0.003139182650973805
3,86,1.0003825831111024,0.0002538553027108381,-0.0033652394370181993
3,87,1.000386049339297,0.0004119315777167088,-0.0037163680532208993
3,88,1.0003888035934927,0.0005274149925831822,-0.004170953129642477
3,89,1.0003927421851648,0.0005643246892538862,-0.004687130763366821
3,90,1.000397398031143,0.0004923340064421789,-0.005183045102668991
3,91,1.0004047621111305,0.0003028282124399203,-0.00560296893012525
3,92,1.0004198416143932,-8.727102156368949e-5,-0.005848560148504741
3,93,1.0004224659108285,-0.0006772804069847938,-0.00588442548205012
3,94,1.0004894554124195,-0.001432205062517682,-0.005823814134864168
3,95,1.0005026715541234,-0.002799751630398778,-0.004765286383097874
3,96,1.0003676866900912,-0.003974438208531785,-0.0035814695227192
3,97,1.000833066767495,-0.005601418873743657,-0.0029833050457319624
3,98,1.0004590026157991,-0.012388209562071994,0.0036466419829278315
3,99,0.9992745630607027,-0.016705375583774478,0.006037976897771824
3,100,1.0003639831031723,-0.0025569148428831504,-0.0005351198229723149
3,101,1.0002769868064108,0.05522430920919984,-0.0019039373831482732
4,1,1.0006675492887245,-1.6577313275065873e-5,-2.426257782832275e-6
4,2,1.0006674378800815,2.9359867412784142e-5,-2.6634716933388293e-5
4,3,1.0006680040314542,0.00015858545981535467,-0.00011262424946073221
4,4,1.0006664897800124,0.0002675782245792259,-0.0002661682618703516
4,5,1.0006634368022422,0.00035228088527994745,-0.0004719423183585019
4,6,1.0006597593931585,0.00045995254934254527,-0.0007256166385428755
4,7,1.000655510105463,0.0006168004097572714,-0.0010375960838740598
4,8,1.0006499527437636,0.0008295314486492294,-0.001428990256626978
4,9,1.0006425388123443,0.0011115786308933519,-0.0019214398446380423
4,10,1.0006331934778423,0.0014817508473283876,-0.0025381939006998843
4,11,1.000621845376964,0.0019425239089406218,-0.0032981634087396886
4,12,1.0006081625455776,0.0024625947917229166,-0.004205350982650266
4,13,1.000591569180846,0.002972298016896779,-0.005227750585068152
4,14,1.0005716017443043,0.0033730664744468955,-0.006288934106073933
4,15,1.0005484460570178,0.0035617752321898894,-0.0072717430565186324
4,16,1.0005235910582053,0.0034642730963149637,-0.008047114764982788
4,17,1.0004998958392022,0.0030628367163090093,-0.008507269428730521
4,18,1.0004809660665888,0.0024011926348440843,-0.008596152612430012
4,19,1.000469976781009,0.0015638170232049314,-0.008312534251339378
4,20,1.0004689837497427,0.000643302100287492,-0.007697138548981586
4,21,1.0004788001525782,-0.0002853547497623228,-0.0068057823599699365
4,22,1.00049941538359,-0.0011743621186530494,-0.005692954883762868
4,23,1.0005302014371669,-0.0020000326084477537,-0.004400624360579229
4,24,1.0005699955216332,-0.002755271290192567,-0.0029606615437288777
4,25,1.0006169834181151,-0.00344349417901611,-0.0013936601271070095
4,26,1.0006689118272645,-0.0040747638271565,0.0002882973747456795
4,27,1.0007234637364413,-0.004661528128631558,0.002085370531179785
4,28,1.000778538034299,-0.0052117396389218295,0.004004108697009287
4,29,1.0008320531130424,-0.005721252441943004,0.006052399626184519
4,30,1.0008815035770344,-0.006170205236737241,0.00822592621334265
4,31,1.0009237851850332,-0.0065265209186227266,0.010504289722800254
4,32,1.000955408202488,-0.006755065013361077,0.012847028117765214
4,33,1.0009732321775715,-0.006828147454430662,0.015202638810588778
4,34,1.0009750993297235,-0.006732974400579863,0.017513901458980734
4,35,1.0009604661163045,-0.006474018281416315,0.019730172638692433
4,36,1.0009303248023425,-0.006070547443985599,0.021809624005116296
4,37,1.0008870985239555,-0.005551379322524164,0.023725599656621143
4,38,1.000833911010977,-0.004948974711891886,0.025462264023307108
4,39,1.0007743072266624,-0.004294623060198814,0.02701649477347784
4,40,1.0007115431979545,-0.00361526991769152,0.028390880662565912
4,41,1.000648615536716,-0.002932093814640395,0.029595184382876637
4,42,1.0005877902152849,-0.002260284414543183,0.03063961085283274
4,43,1.000530932233082,-0.0016096865661826198,0.031537368774831
4,44,1.0004791661641508,-0.0009857639564609722,0.032298777072990476
4,45,1.0004333514918553,-0.00039074768978495386,0.03293485649305761
4,46,1.0003937540828853,0.0001753324979865211,0.033452023227591526
4,47,1.0003605605470771,0.0007136741295442467,0.033856340602266555
4,48,1.0003335083957778,0.0012259445488256883,0.03414853852200884
4,49,1.0003123968639744,0.0017136055200767252,0.03432868445904214
4,50,1.0002966742374126,0.0021774388291084038,0.03439144298619487
4,51,1.000285938038793,0.002617136023828341,0.034331119966996365
4,52,1.000279499413894,0.0030310801502349467,0.034137243142706525
4,53,1.0002768764170265,0.003416200925582229,0.03380007365771271
4,54,1.0002773574094366,0.0037680516413145693,0.03330665506278468
4,55,1.0002804867585469,0.004080990429757439,0.03264687231770613
4,56,1.0002856393375352,0.004348619236216025,0.03180998569898923
4,57,1.0002924843055723,0.004564319249544834,0.030791058078845267
4,58,1.000300568167353,0.004722013384162018,0.029587632182503376
4,59,1.0003097302667054,0.004816904318343058,0.028205899221157668
4,60,1.0003196878057805,0.004846292843521783,0.026656793756981843
4,61,1.0003303848448843,0.004810139229075201,0.024960978071912585
4,62,1.0003415934877835,0.00471150585880855,0.02314365753521116
4,63,1.0003532085599414,0.00455653483648955,0.021237757694536886
4,64,1.0003649065682172,0.004354234503272744,0.019277500541143845
4,65,1.0003764172455107,0.004115804273085836,0.01730007875914659
4,66,1.0003872778542042,0.0038539354971077653,0.015339065241635138
4,67,1.000397085269759,0.0035819251176208012,0.01342578704748126
4,68,1.0004053220663758,0.003313028965314988,0.011584191494786594
4,69,1.0004115551368167,0.0030593907958121635,0.009833061823209838
4,70,1.0004153496697934,0.002830444874299645,0.008182889185662238
4,71,1.0004164590552402,0.002630528754658622,0.00663920423680116
4,72,1.0004148151314813,0.002456736464871085,0.005202090569258053
4,73,1.000410645554704,0.0022973850648783166,0.0038713340308262046
4,74,1.0004045071508667,0.0021329958620284585,0.0026470869111933524
4,75,1.0003972819928464,0.0019420207223772496,0.0015341578495070196
4,76,1.0003900258916016,0.0017114154520848136,0.0005407060410748869
4,77,1.000383639653508,0.0014445926427192261,-0.0003210466931281124
4,78,1.000378813972794,0.0011589892040238868,-0.0010425390602428228
4,79,1.0003759722685008,0.0008753462562841142,-0.0016212384187888746
4,80,1.000375303431888,0.000611323893534824,-0.002064394795328534
4,81,1.000376344086297,0.0003852193023303731,-0.0023812444404352805
4,82,1.0003781992334557,0.0002230414371118126,-0.0025868716371831866
4,83,1.0003801815977331,0.00015557195915343082,-0.0027056178556199924
4,84,1.0003823214738565,0.000204611464733791,-0.0027829760315661646
4,85,1.0003854144283144,0.000369636046366666,-0.002877760597462638
4,86,1.0003901188342867,0.0006129120261945796,-0.0030456627953763067
4,87,1.0003954429953004,0.0008606486595834707,-0.003310435193484258
4,88,1.000401845389343,0.0010273408464895543,-0.0036547343270974786
4,89,1.0004071004480186,0.0010453525365470655,-0.004005959792577202
4,90,1.0004147052721422,0.0008878991179043839,-0.004304955181385123
4,91,1.0004228619856161,0.0005113579915141754,-0.00443501344075293
4,92,1.0004228508688373,-2.4478717877139087e-5,-0.004424076169333347
4,93,1.0004723604258294,-0.0007582176909694139,-0.004368382048988056
4,94,1.0004553152081994,-0.0021852387717565063,-0.003640734281841993
4,95,1.000419147722522,-0.003525806897392673,-0.003207493414908007
4,96,1.000757379418193,-0.0049870645279807965,-0.002707731813924219
4,97,1.0003648074589426,-0.010219306229247523,0.0020645356454623252
4,98,0.9998062831282705,-0.014422651783395534,0.002767340704755159
4,99,1.0006616807241313,-0.010538784921333219,-0.00208752814032993
4,100,1.0010582203004663,-0.001318624847982169,-0.0024058959963142224
4,101,0.9995444365272816,0.05216677441007382,-0.0005368910264782988
5,1,1.0006690936421243,-8.595444457526648e-6,-3.4845826719752564e-6
5,2,1.0006693693971414,8.57952763590824e-5,-3.4974538087531286e-5
5,3,1.0006699968998858,0.0002917762701348506,-0.0001371154103953928
5,4,1.0006685383992093,0.00046461928186261256,-0.0003159901414005345
5,5,1.0006658043493628,0.0005984304741084744,-0.0005526354229149906
5,6,1.0006624778074302,0.0007563258111540614,-0.0008402503706788357
5,7,1.0006585203037552,0.0009764500689883692,-0.001184644943479851
5,8,1.0006535609719067,0.001269219753908064,-0.0016000383173653335
5,9,1.0006470707740505,0.001645668752216802,-0.0020981745719048034
5,10,1.0006387207059886,0.002118837916595235,-0.002686320706545771
5,11,1.0006282043020076,0.002677519106385055,-0.0033568178704421682
5,12,1.000614761542084,0.00326135581812634,-0.0040815907622468745
5,13,1.0005970757530354,0.003758936219404667,-0.004797931958358303
5,14,1.0005739753012444,0.004033493618545539,-0.005413585883444976
5,15,1.0005455227063687,0.003968348709776735,-0.005822917329714726
5,16,1.000513969974496,0.0035123830655730977,-0.005943574495785285
5,17,1.0004834614546931,0.002700266161024846,-0.005739483212244758
5,18,1.0004586906352249,0.0016342728612635706,-0.0052297774728710745
5,19,1.000443297883788,0.00043985354436198716,-0.004466399132586368
5,20,1.0004393287990652,-0.000776630585005194,-0.003510117034808685
5,21,1.0004474426999734,-0.0019471715495175354,-0.0024060178525922805
5,22,1.0004674192056804,-0.003038359225317739,-0.0011824009074540439
5,23,1.0004982136993799,-0.0040385805026511064,0.00014751116616454232
5,24,1.000537932847376,-0.004949036386266027,0.0015745248550464495
5,25,1.0005840594085949,-0.005781547109104252,0.0030973096013133103
5,26,1.0006341466288937,-0.006556822527911846,0.004721778828789248
5,27,1.0006863465395688,-0.007296246242980652,0.006465960113448937
5,28,1.0007391877764704,-0.008007970745053503,0.008346745359717217
5,29,1.0007909089890683,-0.008675984516856266,0.01037107508956076
5,30,1.0008387772505418,-0.009259975100616796,0.012520122590216726
5,31,1.0008792082168596,-0.009706688373987101,0.014752721152761303
5,32,1.0009082406677976,-0.00996658920188869,0.017007227396804863
5,33,1.000922666685892,-0.010008242223884809,0.019219438421070364
5,34,1.000920586582291,-0.009825236056250656,0.02132864430308908
5,35,1.000902042018882,-0.0094350943679831,0.023291579959238248
5,36,1.0008685221497828,-0.008872501297537179,0.02507878085073231
5,37,1.0008228775076269,-0.00818068283764239,0.02667989159655529
5,38,1.0007682970163658,-0.007403602985614111,0.028093302439760937