TITLE="CMs_NON_Orthogonal Re = 10000.0"
VARIABLES = X,Y,Rho,U,V
ZONE
I = 101	J = 101
F=POINT
1,1,1.0008414178057303,2.5222863400981275e-6,-3.067692686704677e-6
1,2,1.0008426230658725,6.863414907226681e-6,-1.9980682880462503e-5
1,3,1.0008425134477925,7.720726237206096e-6,-4.334830740520676e-5
1,4,1.0008425531554663,8.82178848216457e-6,-7.030695386293098e-5
1,5,1.0008425763593332,1.0264096355623992e-5,-0.00010216158340859814
1,6,1.000842552303459,1.1826316021074863e-5,-0.00014041619880116802
1,7,1.000842488370389,1.328560467506431e-5,-0.0001861457568785717
1,8,1.000842397934024,1.447167925629463e-5,-0.0002405888497824892
1,9,1.000842275998143,1.5113332483596669e-5,-0.00030499362711838883
1,10,1.0008421046313785,1.4775152668766707e-5,-0.0003807409736916265
1,11,1.0008418591546098,1.2868442232137318e-5,-0.00046881429552740643
1,12,1.0008415262250905,8.665830150423517e-6,-0.0005698526749125806
1,13,1.0008411168580145,1.3156010738316681e-6,-0.0006836559445108939
1,14,1.0008406828705734,-1.0134525568169865e-5,-0.0008092159055335423
1,15,1.0008403341831773,-2.6704326519631493e-5,-0.0009442429024108382
1,16,1.0008402559384237,-4.942102825109087e-5,-0.0010852124061875054
1,17,1.0008407174825014,-7.925723251752786e-5,-0.0012270160316893556
1,18,1.0008420713701291,-0.00011705299894289917,-0.0013631129861389928
1,19,1.0008447364943773,-0.0001634497245887239,-0.0014853717326650845
1,20,1.000849167004187,-0.00021881447527483984,-0.0015843649967890272
1,21,1.0008558030774393,-0.00028317801618742936,-0.0016494536893469657
1,22,1.0008650072455485,-0.00035616709314289976,-0.001669312632994977
1,23,1.0008769858527355,-0.0004369576605763852,-0.0016323698796067206
1,24,1.0008917056859956,-0.0005242417449609825,-0.0015276783893038847
1,25,1.0009088146391698,-0.0006162388439389257,-0.0013457424372857745
1,26,1.000927584651993,-0.0007107513148235043,-0.0010796249521923338
1,27,1.0009468925952878,-0.0008052837421226059,-0.0007258254296977445
1,28,1.0009652621268288,-0.0008972084853963581,-0.00028509019686875193
1,29,1.0009809770370002,-0.0009839645262378679,0.00023729825407063288
1,30,1.000992255576558,-0.00106325340120155,0.0008315454116456511
1,31,1.0009974501530197,-0.0011332241015289104,0.0014839422268048351
1,32,1.0009952375346345,-0.001192618554033477,0.0021777553699490705
1,33,1.0009847688940667,-0.0012408424403175646,0.002894524839785014
1,34,1.000965757275983,-0.0012779306653633274,0.0036153487000208334
1,35,1.0009384893683442,-0.0013044358069508248,0.004322152950326109
1,36,1.000903766373561,-0.0013212763016466577,0.004998615412260481
1,37,1.000862792064514,-0.0013295847646372038,0.005630864272425585
1,38,1.0008170341080809,-0.0013305723325650403,0.006207767342591302
1,39,1.0007680832007857,-0.0013254252750733771,0.0067210246702564735
1,40,1.000717529747651,-0.0013152319203923466,0.007164965902052519
1,41,1.000666868217978,-0.0013009423193202886,0.0075362876775868
1,42,1.0006174332090643,-0.001283350106266504,0.007833645767762966
1,43,1.0005703632572989,-0.0012630945256095582,0.008057303016899425
1,44,1.000526588690097,-0.001240671869463114,0.008208731282196385
1,45,1.0004868344017246,-0.001216455687947258,0.008290321095644692
1,46,1.0004516349485646,-0.0011907176729808696,0.008305090227513776
1,47,1.0004213522668846,-0.001163650983270085,0.008256501391214768
1,48,1.0003961984888703,-0.001135390116539264,0.00814829563846024
1,49,1.0003762533205172,-0.0011060310307068107,0.007984406296357043
1,50,1.0003614850455205,-0.0010756462058983825,0.007768902250203117
1,51,1.0003517611024908,-0.001044300325066337,0.007505962234634948
1,52,1.0003468654201806,-0.0010120593109459368,0.007199907773539819
1,53,1.0003465011358053,-0.0009790025842900299,0.006855190710863239
1,54,1.000350306869754,-0.0009452243407068371,0.006476503714970527
1,55,1.0003578529946253,-0.0009108449597034653,0.006068719128137601
1,56,1.0003686617568852,-0.0008759999039915286,0.005637083291861316
1,57,1.0003821991064403,-0.0008408562233307055,0.005187014644896803
1,58,1.0003979044345281,-0.000805578936219477,0.0047244270387904385
1,59,1.0004151790998481,-0.0007703670515638122,0.004255237260747902
1,60,1.000433430828068,-0.0007353771132382036,0.0037859493021816545
1,61,1.0004520578266085,-0.0007008108024479644,0.003322614208098367
1,62,1.0004705098081104,-0.0006667576673964786,0.00287198988735162
1,63,1.0004882628608296,-0.0006333941826456956,0.0024394999801139335
1,64,1.0005048946665969,-0.0006006814437442255,0.0020316133404790207
1,65,1.0005200426815293,-0.0005687642384940693,0.0016520250736161654
1,66,1.0005334824448793,-0.0005374521039510243,0.0013063602304731637
1,67,1.0005450640856608,-0.0005068674103032466,0.0009954437290508006
1,68,1.0005547898194875,-0.0004767134624948057,0.0007236857334879001
1,69,1.000562720738879,-0.00044712785053753007,0.0004883606832098896
1,70,1.0005690222460109,-0.0004178372315752203,0.00029267048664765097
1,71,1.0005738933772037,-0.00038894650164429434,0.00013052895123577874
1,72,1.0005776386631644,-0.00036030221753534445,4.090822743148044e-6
1,73,1.0005804862698608,-0.0003322000716853318,-9.502580513949862e-5
1,74,1.0005825726663489,-0.00030463481560436147,-0.00016464562725022362
1,75,1.0005840805567001,-0.00027760616163805094,-0.00021432598627330613
1,76,1.0005853915148304,-0.00025106782883767097,-0.00024233690215040012
1,77,1.0005866898971731,-0.0002255978970184301,-0.00025875863104739266
1,78,1.0005877560981993,-0.00020175291587922,-0.00025961072715473325
1,79,1.0005882798374897,-0.00017979844873410733,-0.0002526638899428494
1,80,1.0005883590036246,-0.0001592539607199699,-0.00023269164941245538
1,81,1.0005883737951968,-0.00013958998594371406,-0.00020962241035678948
1,82,1.0005887104724642,-0.00012018912090278552,-0.0001806535427336221
1,83,1.0005894756423086,-0.0001008406664346579,-0.00015829090987915328
1,84,1.0005906267610503,-8.127924824810048e-5,-0.00014004434439228515
1,85,1.0005920802445143,-6.192319707658167e-5,-0.00013872078361249163
1,86,1.000593551686595,-4.292787225314829e-5,-0.00015018941162907808
1,87,1.0005950818940181,-2.6277683516248632e-5,-0.0001852370905929762
1,88,1.0005961407453106,-1.3621342999808618e-5,-0.0002318332242127414
1,89,1.0005968641886973,-6.852892024682852e-6,-0.00029157692190942596
1,90,1.0005973932420895,-1.0304191707425284e-5,-0.00033703805755953045
1,91,1.0005977003092414,-1.91646371683834e-5,-0.0003574413227081322
1,92,1.0006078505670781,-5.3159103350435886e-5,-0.000304135812452833
1,93,1.0006131493959087,-0.00011580158881506948,-0.00010830190563324796
1,94,1.0006155612040046,-0.000196062096647558,0.00030757028780490964
1,95,1.0006165013338546,-0.0002844647305648673,0.0009877488758145482
1,96,1.000676233613631,-0.00025532759863819193,0.0017867735607125246
1,97,1.0008596495349973,-0.0010059060139443405,0.003483679712811517
1,98,1.0001717302058644,-0.0010659718138743386,0.006656860595798856
1,99,1.0006377682395733,0.0005959573016253201,0.007691652618255868
1,100,1.001810565577737,-0.007676294802116573,0.01639653104154695
1,101,0.9964016748787886,0.026522820098244575,0.013995724637816226
2,1,1.0008399096571505,1.9636050665442863e-5,-6.412695197364545e-6
2,2,1.00084107546254,4.5312416095907285e-5,-4.139277132437887e-5
2,3,1.00084039422912,5.6333676068048696e-5,-0.0001003770510220672
2,4,1.0008398790041586,6.601686979394737e-5,-0.00017303241097270557
2,5,1.0008392974114158,7.934281161019385e-5,-0.00025940685687016857
2,6,1.0008385488520666,9.589577148659077e-5,-0.00036357465670939436
2,7,1.0008376261192593,0.00011542526024742145,-0.0004887754830814882
2,8,1.0008365079903359,0.00013835839486154024,-0.0006381686526252587
2,9,1.000835175448942,0.00016511976745201473,-0.0008148217899437828
2,10,1.0008336030549083,0.00019567611678182828,-0.0010215704935987602
2,11,1.0008317858047575,0.00022948513153120263,-0.0012599555241610103
2,12,1.000829760368714,0.0002655686994477672,-0.0015297905100357938
2,13,1.0008276261760434,0.0003025259223755409,-0.001828341747509154
2,14,1.0008255630788105,0.00033854116305629333,-0.0021501338175434334
2,15,1.000823847782094,0.0003714331529302846,-0.0024863840208441024
2,16,1.0008228590068606,0.0003987503162699813,-0.002825112832868541
2,17,1.0008230717808604,0.00041788843864917037,-0.003150999807359565
2,18,1.0008250339180873,0.0004262053728505104,-0.003445874342452426
2,19,1.0008293307493707,0.0004211400366932672,-0.003688936977841905
2,20,1.0008365336739027,0.0004003601851835514,-0.003857515928902882
2,21,1.0008471388594529,0.0003619784214792096,-0.003927618144838869
2,22,1.0008614919981254,0.0003048568112115319,-0.003875069050791329
2,23,1.0008797075626326,0.00022899165234993986,-0.0036766387886929775
2,24,1.000901583558966,0.00013591343374484002,-0.003311815697779811
2,25,1.0009265275187362,2.8991848949550558e-5,-0.0027645519686515536
2,26,1.0009535055696943,-8.649424836144808e-5,-0.0020253086352998483
2,27,1.0009810457623576,-0.00020362383038869154,-0.001092542382546246
2,28,1.001007311982681,-0.0003144380699919808,2.621432457232337e-5
2,29,1.0010302535810334,-0.0004107620918001577,0.0013143438662840878
2,30,1.0010477997482503,-0.0004850885291711525,0.00274681799373485
2,31,1.0010580768339026,-0.0005313898329152047,0.004291889918986248
2,32,1.0010596097335915,-0.0005457394933425151,0.0059132287220316
2,33,1.0010514828338548,-0.0005266266450018746,0.007572562743105805
2,34,1.001033420804869,-0.0004749101693788112,0.009232102161821023
2,35,1.0010057890779813,-0.0003934557514158962,0.010856751641948836
2,36,1.0009695097649547,-0.0002865737220658355,0.012415579210421942
2,37,1.0009259314428203,-0.00015939282313587606,0.013882790213398487
2,38,1.0008766672815448,-1.7283629264314162e-5,0.01523795734293837
2,39,1.0008234463319048,0.00013459843842272343,0.016465914655396013
2,40,1.0007679785597066,0.00029162260265074187,0.017556197054307842
2,41,1.000711863486571,0.0004498530003866884,0.018502415830766953
2,42,1.0006565216787184,0.0006061039412850012,0.019301461602061178
2,43,1.0006031688373456,0.0007579145970492754,0.019952813691291933
2,44,1.0005528000126007,0.0009034700967409844,0.020457850205174107
2,45,1.00050620480537,0.0010414976173300397,0.02081930112864969
2,46,1.0004639765979675,0.0011711497112687635,0.021040800052067703
2,47,1.0004265441019664,0.00129189402290781,0.02112651675697065
2,48,1.0003941846538067,0.0014034066035337276,0.02108097455736874
2,49,1.0003670577699164,0.0015054851950747766,0.02090881367893972
2,50,1.000345211597378,0.0015979670727738857,0.020614869303672283
2,51,1.0003286136715552,0.0016806737033402655,0.020203983809832387
2,52,1.0003171462201204,0.0017533536591497311,0.019681355462706374
2,53,1.0003106352391704,0.0018156608101804537,0.019052296116110465
2,54,1.0003088331392396,0.0018671208779030544,0.018322891681610116
2,55,1.0003114506733204,0.0019071480713673725,0.017499565374941968
2,56,1.0003181258549279,0.001935036136125903,0.016590125040479534
2,57,1.0003284658110574,0.0019500221959743533,0.015602925594870455
2,58,1.0003420002694872,0.001951303095663588,0.014548412672112208
2,59,1.0003582429619569,0.0019381532084107457,0.013437579367735656
2,60,1.0003766268182122,0.0019099595244542562,0.01228416041844192
2,61,1.0003965967083905,0.0018663861742792334,0.011101963984801181
2,62,1.0004175216473412,0.001807404187356286,0.009907951108470111
2,63,1.0004388306151333,0.0017334708257016127,0.00871793266735704
2,64,1.000459893981633,0.0016455137946227356,0.007550917287515325
2,65,1.0004802094075684,0.0015450589803627105,0.006422650198220755
2,66,1.0004992417832304,0.0014341272770285593,0.005351830589833481
2,67,1.0005166550280238,0.0013152739085137454,0.004351077925319898
2,68,1.0005320994068332,0.0011913656620970063,0.0034357793758805696
2,69,1.000545479293222,0.0010654580563042872,0.0026123297220291062
2,70,1.000556678968965,0.0009405716941523493,0.0018902935304011455
2,71,1.0005658318751907,0.0008196775417571517,0.0012680594031962268
2,72,1.0005730253227518,0.0007052490194886031,0.0007483948138375306
2,73,1.0005786106191847,0.0005988946336244009,0.00032193250618310594
2,74,1.0005827504522142,0.000501732139966628,-1.3765038740440566e-5
2,75,1.0005856745383883,0.0004153684448901595,-0.0002730417638669514
2,76,1.0005875655848238,0.00034100834392002745,-0.00046218869357691746
2,77,1.0005890079653863,0.00027742097248141144,-0.0005998586168400512
2,78,1.000590203894048,0.00022129586309648048,-0.0006916910829650371
2,79,1.0005910085423515,0.00017073291922563012,-0.000751009114592556
2,80,1.0005909396860624,0.00012750764190424244,-0.0007774806777715417
2,81,1.0005900967972934,9.552963016739868e-5,-0.0007866775000439408
2,82,1.0005887567837706,7.830467930793964e-5,-0.0007877508686104122
2,83,1.0005874431550033,7.746221679670884e-5,-0.0008087648767505061
2,84,1.000586077019068,9.268353783289037e-5,-0.0008661836790016342
2,85,1.0005846632066193,0.00012299514145098248,-0.0009900943423283358
2,86,1.000582876796875,0.00016420170880404478,-0.0011913066277888485
2,87,1.0005802764961698,0.00020858059270664663,-0.0014861732054153125
2,88,1.0005773945812868,0.0002427987127209065,-0.0018610000084226452
2,89,1.000573776434098,0.00025049046633259485,-0.002296400090745127
2,90,1.0005714254603848,0.00021950734758033528,-0.0027454881678601315
2,91,1.0005735656483603,0.00012016682613067864,-0.00314347942736692
2,92,1.0005806866932936,-7.344690298304449e-5,-0.0033990821546964513
2,93,1.000609087257135,-0.00044719711125566254,-0.0034002802650364016
2,94,1.0006213271574258,-0.0009235447508227859,-0.0029691065965093016
2,95,1.0006805149442506,-0.0012650854771779738,-0.0022511048323675354
2,96,1.0007452373147252,-0.002385592209554702,-0.0004484223166221346
2,97,1.0006418416901373,-0.0038369553307442215,0.0020432424209203617
2,98,1.0013970012638993,-0.004544081993755986,0.004045772028897012
2,99,1.000295552903464,-0.010741946014835123,0.016230260607407905
2,100,0.9995162877311784,-0.012190648674204135,0.02181145364638265
2,101,1.0036678588406873,0.0515181278480295,0.005629581840071587
3,1,1.0008399698304637,3.744729351156091e-5,-6.379891813982976e-6
3,2,1.0008418186647845,9.935598135950002e-5,-4.606206441269168e-5
3,3,1.0008412832055633,0.00013599037843968148,-0.00012352208075898556
3,4,1.0008404291140711,0.00016262167958263504,-0.000228982907190853
3,5,1.000839729976458,0.00019405286995292383,-0.00035576341200112906
3,6,1.0008389935723427,0.00023286208489444962,-0.0005066078071934558
3,7,1.000838056692433,0.0002775322850302275,-0.0006864775286957663
3,8,1.0008369092251257,0.0003275321637969345,-0.0008990878706189646
3,9,1.0008355389408214,0.00038218755882201685,-0.0011469292966486294
3,10,1.0008339371838437,0.00043933125052465885,-0.0014311316610941792
3,11,1.000832117574872,0.0004951566219432945,-0.0017500510605302257
3,12,1.0008301425312198,0.000544563187309702,-0.0020986526589146202
3,13,1.0008281415638485,0.0005814997148504953,-0.002467697336841517
3,14,1.0008263211733206,0.0005992646956671623,-0.002844008287969314
3,15,1.0008249674537635,0.0005908876009968938,-0.0032105041143393014
3,16,1.000824439409716,0.000549572453013104,-0.0035471430847967937
3,17,1.000825150950645,0.00046910904362025877,-0.0038315023972104417
3,18,1.0008275462922562,0.0003441905175061015,-0.004039954153394209
3,19,1.0008320689085843,0.00017065917993030547,-0.0041482251431494465
3,20,1.0008391300833814,-5.42248552009473e-5,-0.0041323514649446134
3,21,1.000849072117961,-0.0003313911643019875,-0.003969117330483011
3,22,1.0008621268888096,-0.0006593885034198776,-0.0036371230827099755
3,23,1.0008783596454525,-0.0010336933969806027,-0.003117730855829839
3,24,1.0008975980786008,-0.0014460814361016493,-0.002396843324641609
3,25,1.000919349056948,-0.001884351926564915,-0.0014664887421511064
3,26,1.0009427313407593,-0.0023326775720338986,-0.0003266869812215613
3,27,1.0009664572158934,-0.0027726745109662894,0.0010136418611154708
3,28,1.0009888834122755,-0.0031850203496769313,0.002536206189161855
3,29,1.0010081312060062,-0.003551316459721186,0.004214213749187375
3,30,1.0010222650412892,-0.003855896577769863,0.006013796318905742
3,31,1.0010295153364646,-0.0040873197668179805,0.007896610983411736
3,32,1.001028496798803,-0.004239286895176851,0.009822485937861631
3,33,1.001018381985334,-0.004310819757950448,0.011752415838666024
3,34,1.0009989797801375,-0.004305713751794932,0.013650684774596768
3,35,1.0009707267810828,-0.004231464312621079,0.01548665058935479
3,36,1.0009345864771477,-0.00409794289247397,0.017235323431019172
3,37,1.0008919122487623,-0.003916096871375648,0.018877659618564153
3,38,1.0008442790991767,-0.0036968558406878585,0.020399923833881978
3,39,1.0007933443639245,-0.0034503415532809575,0.021793168986559926
3,40,1.0007407169504936,-0.0031853822043415893,0.023052145403688044
3,41,1.0006878821688912,-0.0029092941769814223,0.02417463813024851
3,42,1.0006361367534145,-0.002627857748819768,0.02516042619915402
3,43,1.00058657650665,-0.002345428684975522,0.02601079975625156
3,44,1.0005400789000027,-0.0020651206949843246,0.026727749225614748
3,45,1.0004973270000526,-0.0017890270424387098,0.027313727965265343
3,46,1.0004588133544647,-0.0015184417959428305,0.027771076631558162
3,47,1.0004248764123753,-0.0012540772106689295,0.028101985886000807
3,48,1.000395708252309,-0.0009962535616838525,0.02830811068301225
3,49,1.0003713902240194,-0.0007450770437967677,0.028390665474993665
3,50,1.000351897422227,-0.0005005845207897345,0.028350198089344622
3,51,1.0003371285971459,-0.0002628833399401907,0.028186762189057198
3,52,1.000326907006667,-3.225655975444173e-5,0.027899861669907874
3,53,1.000321003937813,0.00019072715607261953,0.027488658946759142
3,54,1.0003191387993091,0.0004051457972133582,0.02695215027967348
3,55,1.0003209967756175,0.000609645657905926,0.026289363743491546
3,56,1.0003262318573467,0.0008024240746097389,0.025499873487545687
3,57,1.0003344781932173,0.0009812011015974307,0.024583898565348074
3,58,1.0003453589059492,0.0011432828212840523,0.023543297000242533
3,59,1.0003584884590253,0.0012856149015101847,0.022381373179501517
3,60,1.0003734882862922,0.001404962663329219,0.021104493757920978
3,61,1.0003899754343535,0.001498071545738593,0.019721234173075173
3,62,1.0004075849804024,0.001561975461460407,0.01824472211540336
3,63,1.0004259417208015,0.0015942458513049126,0.016690532646926763
3,64,1.0004446902999686,0.001593373883298468,0.015079830163772576
3,65,1.0004634536432244,0.0015590030086143965,0.013435272709864719
3,66,1.0004818768226529,0.0014922439025470133,0.011785072330915808
3,67,1.0004995846196612,0.001395738132336994,0.010156275049334773
3,68,1.0005162363789168,0.0012737108634364076,0.008580105303881978
3,69,1.000531503966897,0.0011316815906580575,0.0070824353987145
3,70,1.0005451358151038,0.0009762080862422045,0.005691039785589144
3,71,1.0005569401980168,0.0008144592699233286,0.004423853746638583
3,72,1.0005668034147177,0.0006536275852525791,0.003298965693232874
3,73,1.0005747341606346,0.0004999167872318585,0.0023213102215397857
3,74,1.0005808751591605,0.0003583059050141208,0.001495699576493672
3,75,1.0005853905219246,0.00023373711714974355,0.0008136634459122165
3,76,1.0005883453360458,0.00013120929556285815,0.0002688504490588154
3,77,1.0005900285411051,5.2037223197946524e-5,-0.00015880658703037114
3,78,1.0005909911798863,-8.94745055459726e-6,-0.0004853172393569218
3,79,1.0005915899891913,-5.85213439090503e-5,-0.0007330800790510441
3,80,1.0005915042987141,-9.618768115306735e-5,-0.000910784242102681
3,81,1.0005902552424866,-0.00011175663607688218,-0.001035517524843421
3,82,1.000587843153596,-9.104670574420598e-5,-0.0011252558953826967
3,83,1.0005847752074204,-2.369593496839993e-5,-0.0012206714394137439
3,84,1.000581598782337,9.282197585385135e-5,-0.0013636528080471385
3,85,1.000578520485598,0.00025295862207344615,-0.0016037794731214208
3,86,1.0005753203878485,0.0004412834378361345,-0.001970821207784138
3,87,1.0005718712686376,0.0006275640184939497,-0.002478836768946259
3,88,1.000567047309952,0.0007755713792274414,-0.0031008999728092002
3,89,1.0005628591061233,0.0008464881039851298,-0.003795705216256315
3,90,1.0005592221009074,0.0007964909860029654,-0.00446978041626451
3,91,1.0005581565934827,0.0006021979689420452,-0.0050491584220444296
3,92,1.0005644210199076,0.0001763871745753677,-0.005407854684552464
3,93,1.0005600113922775,-0.00046503041538320907,-0.005503718189129885
3,94,1.0006185985521512,-0.0012435949152734545,-0.00547050724501417
3,95,1.0006264517624526,-0.0025917768956991417,-0.0044538216226714345
3,96,1.0004932985808792,-0.003731339181022669,-0.003358951550329351
3,97,1.0009491197299352,-0.005363109686431632,-0.0029040466494192575
3,98,1.0005739962707225,-0.012345778182683044,0.003643852666108684
3,99,0.9994064294749434,-0.01683762288317051,0.006009920276221325
3,100,1.0004792971109504,-0.002660046766729321,-0.000579742573353518
3,101,1.0003930975357995,0.05519828520318229,-0.0019172362775458384
4,1,1.0008397716658353,5.9463227200308964e-5,-7.639930555986299e-6
4,2,1.0008418376159647,0.0001640939341552274,-5.313719586929284e-5
4,3,1.0008415889222464,0.00023945477685245867,-0.0001428910751370701
4,4,1.0008408004110474,0.00029487800534255907,-0.0002698881053215785
4,5,1.0008399178847376,0.0003509704761359694,-0.00042553882432291683
4,6,1.000839185632176,0.0004184084979659074,-0.0006068334232019729
4,7,1.0008383732983077,0.0004971588123914852,-0.0008167888078509051
4,8,1.0008373519981004,0.0005849242550870545,-0.001058509016039764
4,9,1.0008361437138213,0.000679468174788494,-0.0013314883712412134
4,10,1.000834767299208,0.0007766268122910875,-0.0016320973561080884
4,11,1.0008332554079609,0.0008697414303468872,-0.0019526126623737939
4,12,1.0008316800593402,0.0009504354379397054,-0.0022810840171579223
4,13,1.000830166460315,0.0010095691338462775,-0.0026010393856347484
4,14,1.0008288980164641,0.0010380462688657794,-0.0028927683204097742
4,15,1.0008281074919785,0.0010274791085500613,-0.003134255961351391
4,16,1.0008280660861542,0.0009706905741131617,-0.0033030265262073543
4,17,1.000829066611743,0.0008619412138931101,-0.0033769565350301864
4,18,1.0008314117012798,0.0006968758345573918,-0.003335391723328649
4,19,1.000835403715267,0.00047236236571570863,-0.003158961974228755
4,20,1.0008413434858294,0.0001865102509733624,-0.002829792490594074
4,21,1.0008495232906627,-0.00016087643201914646,-0.0023310146743940508
4,22,1.0008602058255758,-0.0005673166505747744,-0.0016475005525826436
4,23,1.0008735638123119,-0.00102632973642408,-0.0007666812666762555
4,24,1.0008895790010168,-0.0015262331446200552,0.00031916701307043235
4,25,1.000907917229076,-0.002049657755623285,0.001611044061538956
4,26,1.0009278256417282,-0.00257417289398826,0.0031009530270594433
4,27,1.0009480894215603,-0.003074025122974454,0.004771193923324808
4,28,1.000967065349554,-0.0035226648381305055,0.006594103638744167
4,29,1.000982818019846,-0.0038956534831753225,0.008533897536477446
4,30,1.000993342291807,-0.004173443014438618,0.01054901487362478
4,31,1.0009968488049912,-0.00434348225653629,0.012596044974558455
4,32,1.0009920104145904,-0.004401181970481086,0.014632904958554313
4,33,1.0009781426977833,-0.0043496240145033975,0.016622229921077047
4,34,1.0009552409882347,-0.004198217131081427,0.018532853498896624
4,35,1.0009239401466998,-0.003960760880837398,0.02034107679462378
4,36,1.0008853609939659,-0.003653370061370152,0.02203006480764825
4,37,1.0008409665340046,-0.0032926469771834537,0.0235895837517323
4,38,1.0007923695723502,-0.0028942814708586696,0.02501439992280665
4,39,1.0007412207367334,-0.0024721515492180574,0.02630363164153637
4,40,1.0006890690741237,-0.002037853419932491,0.02745908241160985
4,41,1.000637326861546,-0.001600584345359671,0.028484831091096223
4,42,1.0005871925981842,-0.0011672506985192165,0.029385847330150372
4,43,1.0005396778935478,-0.0007427265706033661,0.03016795716820059
4,44,1.0004955681116912,-0.0003301701341066528,0.03083675104353002
4,45,1.0004554820030922,6.863425116294924e-5,0.03139785576234254
4,46,1.0004198447715176,0.00045295798697415825,0.031856038175424164
4,47,1.0003889581413794,0.0008228320535302404,0.03221567359082081
4,48,1.0003629712553694,0.0011787966396521244,0.03247994747487194
4,49,1.0003419495765375,0.0015216761837640478,0.032651432503127326
4,50,1.0003258386071705,0.001852395003636561,0.03273132338777899
4,51,1.0003145275079737,0.0021718044706191928,0.03272007091808026
4,52,1.0003078064190887,0.002480540262819547,0.03261662502195071
4,53,1.0003054247156233,0.0027788743960038835,0.03241911033521811
4,54,1.0003070458585233,0.0030665938082884616,0.03212409972435426
4,55,1.0003123022568572,0.003342861640303008,0.03172735198875796
4,56,1.0003207534503553,0.00360611718032484,0.03122319998376758
4,57,1.000331940409851,0.0038539568230415108,0.03060540323448395
4,58,1.0003453536487223,0.004083089034895071,0.029866810764517648
4,59,1.0003604888530497,0.004289283485903765,0.029000385565686168
4,60,1.0003768298476485,0.004467454870531067,0.027999365121380206
4,61,1.0003939028135944,0.004611765198906116,0.026858434227547738
4,62,1.0004112732339647,0.004715931940610149,0.025574591994135996
4,63,1.0004285869436835,0.0047735664167565745,0.02414820974165507
4,64,1.0004455709844562,0.004778753433072873,0.02258465439162348
4,65,1.0004620424676782,0.0047266146720193495,0.02089455914172434
4,66,1.0004779023293777,0.00461405572886419,0.019095964294683986
4,67,1.0004930967454553,0.004440344510216286,0.017212745459909196
4,68,1.000507608212954,0.004207701489989903,0.015276860555402352
4,69,1.0005213865359623,0.00392150846922315,0.013323917080066411
4,70,1.000534371722503,0.0035903369064637504,0.01139531445360661
4,71,1.0005464184325834,0.0032254918949282535,0.009530835986755467
4,72,1.0005573686287592,0.00284034591438576,0.007771360653337726
4,73,1.0005670060762084,0.0024490620879495995,0.006149474535737294
4,74,1.0005752263852408,0.002065357861456938,0.004693444341423676
4,75,1.0005819654615784,0.0017021176958095098,0.0034183289535146028
4,76,1.0005871763722707,0.0013719183987717615,0.0023338408429039374
4,77,1.0005907201427413,0.0010845588436300293,0.001436060351822402
4,78,1.0005928473457506,0.0008413230249019243,0.0007134277023050539
4,79,1.0005941518755297,0.0006343817285154336,0.0001418412774408802
4,80,1.0005950227361724,0.00045859128365932184,-0.00029866689509761804
4,81,1.0005950434676167,0.0003246504306330229,-0.0006257384188465693
4,82,1.0005936988531277,0.00025942118002752904,-0.000856455169782305
4,83,1.0005911862115993,0.0002908882858251483,-0.0010282497690280448
4,84,1.0005883163171712,0.00043103761509229513,-0.0011958973698737293
4,85,1.0005860189205176,0.0006690368030109335,-0.0014250623695257433
4,86,1.0005846086866028,0.0009643963264992731,-0.0017615687886686085
4,87,1.0005829639983916,0.0012520124069273512,-0.0022164032262904534
4,88,1.0005817168165663,0.0014564320995548682,-0.0027541573725785944
4,89,1.0005791813657865,0.0015027735596658764,-0.003288324182278066
4,90,1.0005787857172233,0.0013423016069976105,-0.0037360018072133704
4,91,1.000578972643904,0.000909221790344951,-0.003957639667152377
4,92,1.0005719601732825,0.000267240240433306,-0.003958952256032978
4,93,1.0006129505065542,-0.0005605289080365977,-0.003856015738599804
4,94,1.0005903285244397,-0.0020165304974355818,-0.003062460719728774
4,95,1.0005503260569222,-0.003283683502124981,-0.0026029901370616727
4,96,1.0008782671581624,-0.004597807444863051,-0.0022027148100295974
4,97,1.0004792482175136,-0.009870260578346134,0.002449428070333306
4,98,0.9999397864971075,-0.014287636825004033,0.0030260702449769286
4,99,1.0007837143773481,-0.010553936429877649,-0.0020275093414974534
4,100,1.0011726087357948,-0.0014177893229853692,-0.0024363191292132956
4,101,0.9996683059155083,0.05211272513848821,-0.0005439483117369373
5,1,1.000839754378582,8.276619624637213e-5,-8.405975636509326e-6
5,2,1.0008419658362846,0.0002353617892256205,-5.8778767306569565e-5
5,3,1.000841712998312,0.0003535900618837938,-0.0001574203578963461
5,4,1.0008411177231393,0.00044276945794737054,-0.0002952067315072397
5,5,1.0008403043590797,0.0005251439347606706,-0.00046386825971084873
5,6,1.0008394673134278,0.00061620944544454,-0.0006579582457530811
5,7,1.0008386908578337,0.0007196340211796453,-0.0008747455241727046
5,8,1.000837784285703,0.0008308145433831212,-0.001113731582819975
5,9,1.0008366593013003,0.0009424178899847034,-0.0013709084304387826
5,10,1.000835347993183,0.0010452440470182193,-0.0016373076463697194
5,11,1.0008338740649958,0.0011274499259531128,-0.001899194148942564
5,12,1.0008322768971136,0.001175529389279867,-0.0021394073628285552
5,13,1.0008306362983543,0.0011760972638029583,-0.002337751317393883
5,14,1.0008290814591367,0.0011173351601318675,-0.002473242377817433
5,15,1.0008277866838515,0.0009898139732031142,-0.0025252646269133985
5,16,1.0008269669053333,0.0007866690061073976,-0.0024754404707164573
5,17,1.0008268728280194,0.0005032075257565986,-0.002307361562640547
5,18,1.000827800711163,0.0001362049111416982,-0.0020065297346892864
5,19,1.0008301052536765,-0.00031663960422435573,-0.0015585001198533959
5,20,1.0008342188522643,-0.0008565360245432711,-0.0009483120944438685
5,21,1.0008406418308853,-0.001482401511988196,-0.00015966998368077275
5,22,1.0008498846989289,-0.002188738592374755,0.0008231373980982631
5,23,1.00086233668277,-0.0029632753447148,0.0020129895252372046
5,24,1.0008780883888457,-0.0037853550704382228,0.0034156007508085538
5,25,1.0008967610531536,-0.00462592615180474,0.005026668152851823
5,26,1.0009173884746496,-0.005449368305347325,0.006828906186603699
5,27,1.0009384007380695,-0.006216894705835779,0.008792288579115607
5,28,1.0009577238499225,-0.006890934857991059,0.010875116021297326
5,29,1.0009730425588512,-0.007439709821509881,0.01302861663451064
5,30,1.0009821246989243,-0.00784096103837774,0.015201266674551343
5,31,1.0009831789802899,-0.008084004366647805,0.017344736573799344
5,32,1.0009750647938997,-0.00816973578849451,0.019417039334471087
5,33,1.0009574240669523,-0.008108913624099191,0.021385779468129536
5,34,1.0009305986920005,-0.007919356693882718,0.023227794161769726
5,35,1.0008955465087217,-0.0076228726892268155,0.024929480958727424
5,36,1.0008536025846395,-0.007242467193082765,0.026484232243175282