TITLE="CMs_NON_Orthogonal Re = 10000.0"
VARIABLES = X,Y,Rho,U,V
ZONE
I = 101	J = 101
F=POINT
1,1,1.0009927415689155,2.003549380807364e-6,-2.803110003767596e-6
1,2,1.0009938260016442,5.613539482183163e-6,-1.8046980252671267e-5
1,3,1.0009937551202643,5.9541302587756126e-6,-3.7798125649069985e-5
1,4,1.0009940201017697,6.842499926906004e-6,-6.059634112705709e-5
1,5,1.000994305048044,7.792350413999831e-6,-8.794209609347846e-5
1,6,1.0009945974761483,8.538180399540792e-6,-0.00012086848089029466
1,7,1.0009949218528431,8.841338449494039e-6,-0.0001602108889030541
1,8,1.000995291832121,8.369346050810236e-6,-0.00020707154329619956
1,9,1.0009956998476288,6.609234256252496e-6,-0.0002625177504541962
1,10,1.0009961297276893,2.8358261960665096e-6,-0.0003277154792975743
1,11,1.0009965561286194,-3.896907289610267e-6,-0.000403487805574638
1,12,1.0009969544268007,-1.4759944877640228e-5,-0.0004903594270123818
1,13,1.0009973105603107,-3.11347196414205e-5,-0.0005880733861739036
1,14,1.0009976362815165,-5.457156815414084e-5,-0.0006955895837372041
1,15,1.0009979858842315,-8.672561439425812e-5,-0.0008106485596953358
1,16,1.0009984734526984,-0.00012925290087166823,-0.0009298337314676225
1,17,1.0009992827756784,-0.00018369539063165346,-0.0010483198845686742
1,18,1.0010006664809743,-0.00025135204964367924,-0.0011601144141384185
1,19,1.0010029281726185,-0.0003331749975861136,-0.001258052518608424
1,20,1.001006390752566,-0.00042967914521762805,-0.001334189578139519
1,21,1.0010113517067927,-0.0005408890367421988,-0.0013799517987503236
1,22,1.001018033613746,-0.0006662988245784301,-0.0013865745410524938
1,23,1.0010265324997876,-0.0008048608542611612,-0.0013453383420712543
1,24,1.0010367715030855,-0.0009549842329065611,-0.0012480618841960466
1,25,1.0010484611298611,-0.001114563529073295,-0.0010874843094278981
1,26,1.0010610723707027,-0.001281030914210616,-0.0008578908547932126
1,27,1.001073826207152,-0.0014514514790551728,-0.0005556374419673347
1,28,1.0010857110542901,-0.0016226509703751563,-0.00017977954371563269
1,29,1.0010955351835575,-0.001791377615925231,0.0002675395430104548
1,30,1.0011020163359632,-0.0019544760800588343,0.000780803487265427
1,31,1.0011038973510151,-0.0021090771565698153,0.001351206141986852
1,32,1.0011000742272442,-0.002252790324022651,0.0019669655471058907
1,33,1.0010897172209476,-0.0023838654286238666,0.002614063082831999
1,34,1.0010723664187826,-0.002501255592470821,0.0032771534976520885
1,35,1.0010479838338289,-0.002604574108506855,0.003940603464288433
1,36,1.0010169553627029,-0.0026939735076483584,0.004589374167119688
1,37,1.0009800444282129,-0.002769998419418348,0.005209773828652405
1,38,1.0009383109147627,-0.002833437491891687,0.005789930914813022
1,39,1.0008930105726883,-0.002885198426896468,0.006320085430446419
1,40,1.0008454935543034,-0.002926207067463243,0.006792638166869733
1,41,1.0007971125494268,-0.00295733810027505,0.00720208013217038
1,42,1.0007491510887077,-0.002979368568779969,0.007544786867264076
1,43,1.0007027708016778,-0.002992956069762398,0.007818777433273907
1,44,1.000658981217582,-0.002998630546691099,0.008023438614885092
1,45,1.0006186228454736,-0.0029968010690819423,0.00815926413718598
1,46,1.0005823668971643,-0.002987767469513031,0.008227626627061474
1,47,1.0005507180525686,-0.002971739755557826,0.008230570140822688
1,48,1.0005240286762698,-0.002948856742607593,0.008170679733409531
1,49,1.00050250673469,-0.0029192088290733364,0.008050939815574266
1,50,1.0004862343947745,-0.0028828568262097556,0.007874711374522907
1,51,1.0004751725468037,-0.002839854349667812,0.007645632944621272
1,52,1.0004691803337094,-0.002790263323686083,0.007367702064888747
1,53,1.000468012830789,-0.0027341756036738433,0.0070451724582066165
1,54,1.0004713431727732,-0.0026717214733603034,0.0066827409073296345
1,55,1.0004787528925845,-0.0026030927235294985,0.0062853675944464955
1,56,1.0004897616549575,-0.002528536708340469,0.005858591504137638
1,57,1.0005038107772073,-0.002448387887369743,0.0054081546843099
1,58,1.0005203073255884,-0.0023630316007449783,0.004940523395849412
1,59,1.000538600571364,-0.002272962861698913,0.0044621103829517485
1,60,1.000558046963305,-0.00217868755956904,0.0039802044791742465
1,61,1.0005779768349539,-0.0020808531479919695,0.0035014188473177135
1,62,1.0005977835513886,-0.0019800250661473158,0.00303350257376506
1,63,1.0006168738471584,-0.001876979023378848,0.002582324407824927
1,64,1.0006347790722168,-0.001772243535664323,0.0021555516657315774
1,65,1.0006510801557054,-0.0016666980265301523,0.0017569208846840727
1,66,1.0006655288108834,-0.0015607472429489027,0.0013935385334980426
1,67,1.0006779417732417,-0.0014553324030261606,0.0010655075201942824
1,68,1.0006883250155356,-0.0013507156192515731,0.0007791440045799594
1,69,1.000696732067954,-0.0012478467867967848,0.0005299561021579869
1,70,1.0007033560753729,-0.0011469386273385393,0.00032357411641257205
1,71,1.0007084102722368,-0.0010487842135768484,0.00015109850562933225
1,72,1.0007122431899556,-0.0009536329485718132,1.7573740298386516e-5
1,73,1.0007151034517183,-0.0008623083653823929,-8.894087576845908e-5
1,74,1.0007171771650123,-0.0007750657090308346,-0.00016296520944953657
1,75,1.0007187062316054,-0.0006922380681168024,-0.00021805933665650532
1,76,1.0007201236703154,-0.0006140342252546047,-0.000248703574055314
1,77,1.0007215736575676,-0.0005413287222987312,-0.0002686381879181099
1,78,1.0007228135268715,-0.00047467371805040456,-0.0002692180315718591
1,79,1.0007235922198008,-0.0004141920551217936,-0.00026204346320357575
1,80,1.0007241188477394,-0.00035906983133788753,-0.0002376028135202875
1,81,1.000724786402687,-0.00030852829352475856,-0.00021045687269391104
1,82,1.000725901336205,-0.00026156117846899457,-0.00017340091090502717
1,83,1.0007274536656814,-0.00021765931960759482,-0.00014371346490036705
1,84,1.0007293397121835,-0.00017617471469651665,-0.00011423293371009192
1,85,1.0007314424903646,-0.00013746746405891296,-0.00010330136929682479
1,86,1.000733517649995,-0.00010160591095853422,-0.00010236188277783613
1,87,1.0007356094159734,-7.07062619684317e-5,-0.00012931591064426062
1,88,1.0007371908936884,-4.617671904034163e-5,-0.00016865237187389361
1,89,1.0007383116527881,-2.984062564438576e-5,-0.00023073458475328954
1,90,1.000738812287671,-2.5552478664333866e-5,-0.0002844206729028704
1,91,1.0007386036231767,-2.841335076359252e-5,-0.0003262225507534684
1,92,1.0007475843620155,-5.8845535766837054e-5,-0.00030031915837101667
1,93,1.0007512129951337,-0.00011925635392740839,-0.00013958584950414177
1,94,1.0007527894844033,-0.00020111937542767596,0.00024258888659287254
1,95,1.0007527346248475,-0.0002911480297332046,0.0008951789369873851
1,96,1.0008138172926717,-0.0002642837300136147,0.0016720117669229608
1,97,1.0010020686360086,-0.0010255198604140552,0.003368130465898752
1,98,1.0003140958478651,-0.0010909715461826534,0.0065699635600802685
1,99,1.0007795573480056,0.0005625133774357605,0.007655845345874158
1,100,1.001956635951908,-0.007688345851517841,0.01641386167930151
1,101,0.9965387800030459,0.026525997577775753,0.013996939020937182
2,1,1.0009914594879175,1.829082484691732e-5,-5.795507739384806e-6
2,2,1.000992517372934,3.961213428304463e-5,-3.656577802099241e-5
2,3,1.0009919289832945,4.752845690747484e-5,-8.585540591970232e-5
2,4,1.000991760744311,5.672586244210632e-5,-0.00014642191361989728
2,5,1.0009915349010472,6.922713109769983e-5,-0.00021989247265991282
2,6,1.0009911869741683,8.420768586105575e-5,-0.00030943291292834024
2,7,1.0009907642149087,0.00010206890462037896,-0.00041739060781670735
2,8,1.0009902463161113,0.00012349376397983091,-0.0005465544437531664
2,9,1.0009896089434887,0.00014902550711202677,-0.0006996798901770746
2,10,1.0009888282240151,0.0001789704547624143,-0.0008792633831324017
2,11,1.0009878960080039,0.00021331330994187392,-0.001086679722272257
2,12,1.0009868321367732,0.00025166862051342697,-0.0013217715082401117
2,13,1.000985703404569,0.00029325810877605947,-0.001581975183361677
2,14,1.0009846403885572,0.0003369427590837012,-0.001862026569159022
2,15,1.0009838535129822,0.00038131072588889076,-0.002153416202353588
2,16,1.0009836367357008,0.0004248175468462313,-0.002444576988324257
2,17,1.0009843596152166,0.00046595264291021584,-0.002720981806713686
2,18,1.0009864390345462,0.0005033804135665482,-0.0029659278445872492
2,19,1.000990300059918,0.000536019540774442,-0.0031611170485175205
2,20,1.0009963255327161,0.000563049041846941,-0.003287622851240754
2,21,1.0010048082856642,0.0005838744919659123,-0.003326452838742817
2,22,1.0010159044946512,0.0005981083024244387,-0.003259322771090292
2,23,1.0010295968276586,0.0006056257358860454,-0.003069107211048915
2,24,1.001045659882113,0.0006067228734028748,-0.002740635343195541
2,25,1.0010636331172902,0.0006023554479969753,-0.0022614154902251262
2,26,1.0010827968667364,0.0005943768835290856,-0.0016227788512127661
2,27,1.0011021679280672,0.0005856733178641612,-0.0008208941322905487
2,28,1.001120520657385,0.0005801119344655075,0.00014213169410661538
2,29,1.0011364490299242,0.0005822783972577475,0.0012576689548920497
2,30,1.0011484612704946,0.0005970249697792892,0.0025103317803389646
2,31,1.0011551093811801,0.0006288940731458688,0.0038785417057303736
2,32,1.001155130269355,0.0006815211859382872,0.005335588368627202
2,33,1.0011475854648983,0.0007571540456026137,0.0068513479339384455
2,34,1.0011319617701862,0.0008563990610013746,0.008394142054801162
2,35,1.0011082252736294,0.0009782348164329303,0.009932683126927447
2,36,1.0010768088885993,0.0011202506526711332,0.011437629958290596
2,37,1.001038555054979,0.0012790259463682243,0.012882811673560026
2,38,1.0009946144108668,0.0014505543032878527,0.01424589276900548
2,39,1.0009463379117622,0.0016306380249455506,0.015508676751041187
2,40,1.0008951615862596,0.0018152037975263076,0.016657001948814514
2,41,1.0008425172845568,0.0020005235117220646,0.017680432246553326
2,42,1.000789753465613,0.0021833403296187817,0.018571781818882527
2,43,1.0007380921620161,0.0023609184158429994,0.019326569922987837
2,44,1.000688592796497,0.0025310314178333734,0.019942514835796312
2,45,1.000642148935307,0.002691914897759201,0.02041899047545865
2,46,1.0005994798476405,0.002842191572064157,0.02075668283346463
2,47,1.0005611501008267,0.0029807924090264385,0.02095713288950765
2,48,1.0005275709669885,0.0031068691721159634,0.02102264237853727
2,49,1.0004990294771747,0.0032197223435241683,0.020955884832335524
2,50,1.0004756870516602,0.0033187245411170374,0.0207601066723699
2,51,1.0004576119043538,0.0034032728433144592,0.020438727892526355
2,52,1.0004447675753951,0.003472730826370091,0.01999589300121708
2,53,1.0004370488345358,0.003526414879727345,0.01943593482568397
2,54,1.000434255572644,0.0035635572136688224,0.018764366889149994
2,55,1.0004361370298587,0.0035833364044999595,0.017987019203027477
2,56,1.0004423469397459,0.003584863064946361,0.01711161615699377
2,57,1.0004525049420285,0.0035672675199053872,0.01614629113771044
2,58,1.0004661278183746,0.0035297071412219274,0.015101959164278714
2,59,1.0004827211123866,0.003471520824989625,0.013989769940321278
2,60,1.0005016793409798,0.003392246646890048,0.012824572799577761
2,61,1.0005224246742175,0.003291836115838433,0.011620689579639253
2,62,1.0005442662554,0.0031706503475026227,0.010396908899668126
2,63,1.000566603995855,0.003029697241550997,0.009169794791457042
2,64,1.00058873348008,0.002870558118687158,0.007960873718392603
2,65,1.00061012792984,0.0026955701030301122,0.006786607298214598
2,66,1.0006301725774194,0.0025076402028455483,0.005668747004755625
2,67,1.000648524393558,0.0023103222039359303,0.004620160009227389
2,68,1.00066476135684,0.0021074931810235176,0.0036595469943787396
2,69,1.0006788079712636,0.001903250642011639,0.0027926221517335934
2,70,1.000690494269668,0.0017015871088857386,0.002032222032024127
2,71,1.0007000055142736,0.0015063840435924696,0.001374839089589846
2,72,1.0007073957621033,0.0013208467790891288,0.000826289138098451
2,73,1.000713097340906,0.0011471908188683717,0.0003741586290537283
2,74,1.00071725811056,0.000986979164717886,1.8925510126547218e-5
2,75,1.000720222533444,0.000842004424671416,-0.00025757698945331564
2,76,1.0007222143949626,0.0007130579669680738,-0.00045837354307010856
2,77,1.0007239363937281,0.0005981886562003757,-0.0006054098863643968
2,78,1.0007254967162598,0.0004938723983012976,-0.0006992170358440778
2,79,1.0007267580705441,0.0003988585888407991,-0.0007558766783585299
2,80,1.000727222169541,0.00031567114491453307,-0.0007708547480426191
2,81,1.0007271367039814,0.0002482624643659532,-0.0007651107277764595
2,82,1.0007267153282156,0.0001995291911409113,-0.0007448649574721489
2,83,1.0007264308431816,0.00017058590487331683,-0.0007436976349122027
2,84,1.0007259860126363,0.00016110241480994287,-0.0007740466214752051
2,85,1.00072533975593,0.0001707494403382929,-0.0008717250022006883
2,86,1.0007240532537336,0.00019692933497352855,-0.0010448535725158564
2,87,1.00072177563366,0.0002340779760240063,-0.0013196622114475325
2,88,1.00071887049425,0.0002704473852445813,-0.0016840537778959298
2,89,1.000714828044254,0.00028942925837878463,-0.0021317745473620362
2,90,1.000711409283395,0.00027551826587417797,-0.0026151700011921683
2,91,1.000711601916263,0.0001935429784875977,-0.0030734236191167054
2,92,1.0007164074347148,1.1472267288154998e-5,-0.0034020242814342305
2,93,1.000742592145067,-0.0003611265609710456,-0.0034801210441179134
2,94,1.0007537928788306,-0.0008455260168184048,-0.003114260627076468
2,95,1.0008143432419307,-0.0012037808796919573,-0.0024494494535705577
2,96,1.0008816249383192,-0.0023499578883164236,-0.0006716758578930535
2,97,1.0007847896231667,-0.0038432765352205862,0.001816946032386049
2,98,1.0015431990741555,-0.004620071162429155,0.003872702789774192
2,99,1.0004447734114474,-0.010845475807647288,0.016151386372844218
2,100,0.9996502805167555,-0.012213139978904162,0.021799339529476873
2,101,1.0038013621361679,0.05153491470803362,0.005626989208527562
3,1,1.0009914979927914,3.3522337366543944e-5,-5.679343544471697e-6
3,2,1.0009931486540868,8.472146796579512e-5,-4.022060226279913e-5
3,3,1.000992652974885,0.00011237232375384093,-0.00010483586904705794
3,4,1.0009921928629293,0.00013652523508456198,-0.00019299331233254836
3,5,1.0009918861738014,0.00016550387161498953,-0.0003011671714152564
3,6,1.000991527235349,0.00019938982835965784,-0.0004318574083415457
3,7,1.0009910539534603,0.0002376001477760611,-0.0005886568020801253
3,8,1.0009904798189317,0.00028010385616807667,-0.0007745960786293229
3,9,1.000989773954161,0.00032597870291745806,-0.0009920493670472227
3,10,1.00098891900177,0.0003729250647444646,-0.0012421864774041064
3,11,1.0009879231310375,0.0004171815728950446,-0.0015236637036577187
3,12,1.0009868307182013,0.0004535372390274382,-0.0018320174558529956
3,13,1.000985737817242,0.0004755434313836233,-0.002158728637710663
3,14,1.0009848040725617,0.0004759269591111026,-0.002491260608052154
3,15,1.0009842576668349,0.00044720179712354175,-0.0028130881755208947
3,16,1.000984388145273,0.0003823953053527066,-0.003104782861812957
3,17,1.0009855255134616,0.00027573499718789863,-0.003345007798881669
3,18,1.0009880090847825,0.00012312703252704657,-0.003512134657008315
3,19,1.0009921507155728,-7.7668296685179e-5,-0.0035852383352975845
3,20,1.0009982021029324,-0.00032712423291342204,-0.00354513752453755
3,21,1.0010063291426983,-0.0006241492725612609,-0.003374565804751145
3,22,1.0010165957614507,-0.0009662101555016398,-0.003058446333765437
3,23,1.0010289488104054,-0.0013492391432642374,-0.002583767608599608
3,24,1.0010431965313633,-0.001767314682394433,-0.0019401099768102483
3,25,1.001058973093094,-0.002212261610499085,-0.0011202480086094904
3,26,1.001075696355227,-0.002673410409314236,-0.00012145771774120005
3,27,1.0010925350245143,-0.003137737336909324,0.0010534069323180927
3,28,1.0011084031001405,-0.003590482830110494,0.00239475791043237
3,29,1.0011219974958376,-0.00401621518651102,0.003886006220330072
3,30,1.0011318860745309,-0.0044001928302663616,0.005503795582725682
3,31,1.0011366473607004,-0.004729789224667332,0.007219400048189885
3,32,1.0011350337255283,-0.0049956854436956485,0.009000499857964207
3,33,1.0011261294941958,-0.005192582631756884,0.010813586264072436
3,34,1.0011094598609453,-0.005319313844199041,0.012625993322123896
3,35,1.0010850415377197,-0.005378406774561597,0.014407831972728219
3,36,1.0010533584499801,-0.005375262139767874,0.016133042405338197
3,37,1.0010152923583853,-0.0053171662673203975,0.017780147966062268
3,38,1.000972010824962,-0.005212323457956234,0.01933217989042308
3,39,1.0009248566798925,-0.005069042471464474,0.020776532145985557
3,40,1.0008752321142904,-0.004895131702080387,0.022104262163181905
3,41,1.00082451540063,-0.004697515719268493,0.023309594576701596
3,42,1.0007739855111977,-0.00448203808352742,0.024389080722932218
3,43,1.0007247862902484,-0.004253416898653827,0.025341116530078273
3,44,1.0006778935066254,-0.004015298912936889,0.0261652124206748
3,45,1.0006341157346366,-0.003770385621760143,0.026861667140275686
3,46,1.000594087821453,-0.003520586894721507,0.02743102389158378
3,47,1.0005582902663837,-0.003267198166106042,0.027873908117735505
3,48,1.0005270535752127,-0.003011066567637582,0.028190669201479394
3,49,1.0005005824614615,-0.0027527640158952877,0.028381338043536236
3,50,1.0004789624641728,-0.002492732340904853,0.02844544923673612
3,51,1.0004621818305945,-0.002231437648731202,0.02838206420821161
3,52,1.0004501382265754,-0.0019694866627171753,0.028189805079994336
3,53,1.0004426555989614,-0.0017077617634741848,0.027866887211669394
3,54,1.0004394928997793,-0.0014475030861021206,0.027411454586878218
3,55,1.000440354890482,-0.0011904183558977288,0.026821545392296604
3,56,1.0004449065665202,-0.0009387123656739244,0.02609588857590492
3,57,1.0004527760471893,-0.0006951493673058123,0.025233660154969893
3,58,1.0004635781118647,-0.00046299292254189326,0.024235967858147453
3,59,1.0004769047144442,-0.00024598269038261957,0.023105112088512965
3,60,1.0004923593234691,-4.8138406872463475e-5,0.021847030859823677
3,61,1.0005095280257814,0.00012638283595886018,0.02046953636899331
3,62,1.0005280250820374,0.00027364062111419243,0.01898600501472277
3,63,1.0005474393614218,0.0003901614118761719,0.017411748223517466
3,64,1.0005673923789964,0.00047339949258654414,0.015769245555786585
3,65,1.0005874639724759,0.0005219837743358631,0.014081564876785486
3,66,1.0006072690627241,0.0005361316652513979,0.012379530675720141
3,67,1.0006263796197405,0.0005177187410648707,0.010691166653088863
3,68,1.0006444152898784,0.0004704134840804616,0.009051471831225066
3,69,1.00066099261496,0.0003993679251364593,0.007487369945630788
3,70,1.0006758190911083,0.000310994667016468,0.006031016091066126
3,71,1.000688664195021,0.00021246838105732225,0.00470071930740704
3,72,1.0006993896079401,0.00011108280538738667,0.003518801537517814
3,73,1.0007080049323784,1.3186959648120167e-5,0.002489255254038016
3,74,1.0007146643413705,-7.610084693721332e-5,0.0016204595622507805
3,75,1.0007195783735223,-0.000151926387459622,0.000901613061576531
3,76,1.0007228631500402,-0.00021013496910247178,0.0003294350965450951
3,77,1.0007249322630156,-0.00025104565727655803,-0.00011905970726223031
3,78,1.0007263917892248,-0.0002809033363304628,-0.00045582151094270056
3,79,1.000727573624221,-0.0003053684826334712,-0.000704922019563574
3,80,1.000728065461858,-0.00032108142698130407,-0.0008708096225422798
3,81,1.0007274414934608,-0.00031552475381459844,-0.0009754584617110068
3,82,1.0007257719361218,-0.00027407974579870767,-0.0010367643616599426
3,83,1.0007235998828712,-0.00018705201794016996,-0.0011024484258664743
3,84,1.0007213205599272,-5.2188287844346044e-5,-0.0012128083046989346
3,85,1.0007189802959906,0.00012634669293851288,-0.001422376918825534
3,86,1.000716247198228,0.00033694998711765163,-0.0017599440593057583
3,87,1.0007129984326892,0.0005544888262898942,-0.0022498613892982717
3,88,1.00070812953972,0.0007459241429040362,-0.002871236191913984
3,89,1.000703569127719,0.0008700835834020781,-0.0035951683476175933
3,90,1.0006990190507137,0.0008736067232220291,-0.004325738517520671
3,91,1.0006966492060483,0.0007186652387650224,-0.004982631799824781
3,92,1.0007008843904714,0.0003070066004063978,-0.005415023159953077
3,93,1.0006951532440487,-0.0003458433665410117,-0.005568380706174395
3,94,1.000752879547469,-0.00115054048781438,-0.005566375816668846
3,95,1.000761277963192,-0.0025316246258192763,-0.004564091007848127
3,96,1.0006329796941578,-0.003712739975098728,-0.003482866373315318
3,97,1.0010869423965487,-0.00541336959565229,-0.0030276038280263335
3,98,1.0007124290292997,-0.012502025729219561,0.0035394615292251605
3,99,0.9995442026576401,-0.017010708923320496,0.005914214464800561
3,100,1.000610446929966,-0.0027422969554384805,-0.0006318752053511929
3,101,1.0005322458801522,0.05519421626186769,-0.0019252725086928639
4,1,1.0009911209914415,5.4023151982227606e-5,-6.943940923712897e-6
4,2,1.000992985951353,0.00014109906845300967,-4.7479156799124687e-5
4,3,1.0009927271905183,0.00020041284141626033,-0.00012450657980827995
4,4,1.0009922946609802,0.00025073559372897205,-0.00023347428866130464
4,5,1.0009918313392614,0.00030393104528479833,-0.00036906796981920996
4,6,1.000991497423694,0.0003655034577600667,-0.0005291042790908249
4,7,1.0009911308461767,0.00043617542148614467,-0.0007156173557579715
4,8,1.0009906654649523,0.000515343527569227,-0.0009307447272009816
4,9,1.000990121348595,0.0006015404053551624,-0.0011739764170329594
4,10,1.000989501099112,0.0006913050511303294,-0.001442220886836164
4,11,1.0009888334034136,0.0007790254984923734,-0.0017285480380681507
4,12,1.0009881833341414,0.0008573059949222483,-0.002021888401752612
4,13,1.000987655265105,0.0009176309351896808,-0.00230665250984597
4,14,1.0009873981983335,0.0009513382524400527,-0.0025637578445936353
4,15,1.0009875998677333,0.0009507214471643351,-0.002771656593253922
4,16,1.0009884730084597,0.0009100114868298208,-0.002908454100698114
4,17,1.0009902321510038,0.0008259483903817615,-0.0029533560386780576
4,18,1.0009930699356546,0.0006977556949524251,-0.0028882677434996055
4,19,1.0009971372263766,0.0005265584219569737,-0.002697957271904957
4,20,1.0010025367325157,0.0003145361293945126,-0.0023699902435715845
4,21,1.0010093275519236,6.423929285215075e-5,-0.0018935643976900748
4,22,1.0010175342192573,-0.00022154562871305736,-0.0012589820147930015
4,23,1.0010271405562865,-0.0005392342472275899,-0.0004571974226266578
4,24,1.0010380547228406,-0.0008833586184314359,0.0005191114304250679
4,25,1.0010500446338657,-0.0012454110222821187,0.0016741323040762467
4,26,1.0010626602840347,-0.0016131282673996535,0.0030065229995461006
4,27,1.0010751715591184,-0.0019705920599242133,0.004507742809383965
4,28,1.001086543749729,-0.002299264945556263,0.006160651519699003
4,29,1.0010954848140572,-0.0025798461350298057,0.00793991517356144
4,30,1.0011005629628738,-0.0027945692064527674,0.009813239073399774
4,31,1.0011003910639225,-0.002929412788665862,0.011744241251885853
4,32,1.0010938133783245,-0.002975689183187442,0.013695242944850196
4,33,1.001080072332814,-0.002930708227035745,0.015630483228038138
4,34,1.0010588898582706,-0.0027974812733562895,0.017518082575202886
4,35,1.0010304915655857,-0.0025836974803273064,0.019331747051133327
4,36,1.0009955394888086,-0.0023002944598359523,0.021050970141621033
4,37,1.0009550491189567,-0.0019599666819106664,0.022661208228542815
4,38,1.0009102557694276,-0.001575838099353471,0.024152917518047372
4,39,1.0008625188109221,-0.0011604440463859915,0.02552106251692179
4,40,1.0008132016997813,-0.0007250415123548963,0.02676382226097999
4,41,1.0007636177594603,-0.00027923422031262497,0.027882093754942255
4,42,1.0007149523515817,0.00016916298860490415,0.028878312516506188
4,43,1.0006682570977912,0.0006140746033626327,0.029756207124180672
4,44,1.000624407483968,0.0010510082656218385,0.030519844859532717
4,45,1.0005841300138008,0.0014768287812270433,0.0311736535298618
4,46,1.0005479780277335,0.0018895149655594387,0.03172164915971566
4,47,1.0005163740402414,0.002287908340967498,0.03216765609178673
4,48,1.0004895900216861,0.00267148426194173,0.03251463593900189
4,49,1.0004677930225672,0.0030401331211605516,0.03276503154003311
4,50,1.0004510230451773,0.003393973289395672,0.032920130034719094
4,51,1.0004392362579448,0.003733168356053819,0.03298047967024757
4,52,1.0004322792419713,0.004057774928443894,0.03294525373772093
4,53,1.0004299284097493,0.004367579291923423,0.032812720532907264
4,54,1.0004318633403977,0.0046619675924142725,0.032579625108536514
4,55,1.0004377037105303,0.004939768846413131,0.03224172665763902
4,56,1.0004469872825272,0.0051991503995797534,0.03179329022066666
4,57,1.000459207080878,0.005437476668130063,0.03122773503933624
4,58,1.00047380133351,0.005651265838791385,0.03053743214594269
4,59,1.0004901929312444,0.005836112571393395,0.029714502128266568
4,60,1.0005077975633963,0.005986785098227921,0.02875122320617487
4,61,1.0005260623115735,0.006097301224470916,0.027640908506464345
4,62,1.000544492004436,0.006161270613649758,0.02637927433767285
4,63,1.0005626728638761,0.006172216893313659,0.024965020570877853
4,64,1.000580305793706,0.006124220409958056,0.023402405530049582
4,65,1.000597190931929,0.006012483439818295,0.021700623321143305
4,66,1.000613253515611,0.00583416468033596,0.01987757137677129
4,67,1.000628467696894,0.0055889683273949815,0.017956586707918602
4,68,1.000642878700253,0.005279815219853575,0.015971214012395322
4,69,1.0006564823838597,0.0049130398633694915,0.013957813253614679
4,70,1.0006692826174381,0.0044984481142639815,0.011961327886250189
4,71,1.0006811584564603,0.004048776848491881,0.010023290503900611
4,72,1.0006919876473614,0.0035789538057186586,0.008189443609724517
4,73,1.0007015487197448,0.0031046882471056783,0.006494089324458025
4,74,1.000709747033441,0.0026411114118175816,0.004970455046869627
4,75,1.0007164992408637,0.002202053245934507,0.0036341932080029386
4,76,1.000721772836028,0.001800053963728255,0.00249904738258685
4,77,1.0007254595272215,0.0014435734853395805,0.0015599251002743045
4,78,1.0007279111108645,0.001132175578325216,0.0008081768022243298
4,79,1.0007297561019872,0.0008582071452861743,0.00021846912218455764
4,80,1.0007313011076384,0.0006199625353065097,-0.00022487591905718054
4,81,1.000732003849435,0.00043271134708576053,-0.0005414020079748909
4,82,1.0007313659248445,0.00032535572954378816,-0.0007486656244133902
4,83,1.0007296606563856,0.00032429303456362266,-0.0008921073624862111
4,84,1.0007276956458664,0.00043886821126701037,-0.0010293541109963492
4,85,1.0007262463472533,0.0006588127939120706,-0.0012318284130816122
4,86,1.0007254995900925,0.0009501840947997544,-0.001546139276784457
4,87,1.000724347387788,0.001257388829399066,-0.001991473081566846
4,88,1.0007234211248826,0.0015093643552249326,-0.002537803531747002
4,89,1.0007209709992637,0.0016226646177386964,-0.0031055367435269036
4,90,1.000720257620939,0.0015257239550328487,-0.003603466338032814
4,91,1.000719231074992,0.0011254841783530727,-0.003875570265449627
4,92,1.000711009723017,0.0004714661303522635,-0.0039045022580697928
4,93,1.000749961266291,-0.00039785274986726195,-0.0037968824666415393
4,94,1.0007259285172299,-0.001900389837449387,-0.002975288634459659
4,95,1.0006880588711367,-0.003196069795241229,-0.0024977889153167494
4,96,1.0010123884492659,-0.00453016325399216,-0.002113170985367277
4,97,1.0006116873160005,-0.009882543484977316,0.0024966414879361454
4,98,1.000083408488482,-0.014390463207056522,0.0030035392231597654
4,99,1.0009211630403527,-0.010716277043531704,-0.0020908187957383705
4,100,1.0013101554574078,-0.0015393603903088831,-0.0024741658898164705
4,101,0.999809870638853,0.05208780520622801,-0.0005517304180830857
5,1,1.0009908208649128,7.489651272445122e-5,-7.885770917489261e-6
5,2,1.0009928704833064,0.00020365425404949737,-5.427393877832771e-5
5,3,1.00099258266813,0.0002987626070565785,-0.00014209754635054168
5,4,1.0009922908548807,0.0003791034040670787,-0.00026429716647860334
5,5,1.0009918709262444,0.0004566714565813244,-0.0004152739659876191
5,6,1.00099145696447,0.0005396339267402355,-0.0005905134899217242
5,7,1.00099114339333,0.0006311964060910483,-0.0007871480426886918
5,8,1.0009907870192374,0.0007285500175833348,-0.0010040273718396582
5,9,1.0009903340809667,0.0008256010265896799,-0.0012370356523271888
5,10,1.0009898126024521,0.000913722010007168,-0.0014778014828266382
5,11,1.0009892365600523,0.0009814253250433735,-0.0017134974403632819
5,12,1.0009886400368455,0.0010151809081620446,-0.0019276430387874949
5,13,1.0009880889372778,0.0010009530036048026,-0.0021005197411216306
5,14,1.000987683375436,0.0009259569849058503,-0.002211354120979637
5,15,1.0009875587957082,0.0007802756329158458,-0.0022398769007579674
5,16,1.000987879511417,0.0005578661678700609,-0.0021686170504399004
5,17,1.0009888255372723,0.0002566328542138026,-0.0019834107640535055
5,18,1.0009905843434392,-0.00012244327217147895,-0.0016736132425663284
5,19,1.000993351222126,-0.0005767194958584811,-0.0012302512547621846
5,20,1.0009973453783094,-0.0011031413882932085,-0.0006445231805498025
5,21,1.0010028247914773,-0.0016986235376225355,9.421588369234543e-5
5,22,1.0010100775432913,-0.002359194200960431,0.00099826498815944
5,23,1.001019362811355,-0.0030781247561901307,0.0020804918174322637
5,24,1.0010307983899325,-0.0038437738413552003,0.0033507671705623574
5,25,1.0010442236012596,-0.004638083772758139,0.004812571307617976
5,26,1.0010590710396956,-0.00543643919238237,0.006459074692183122
5,27,1.0010743043323604,-0.006209189565150593,0.00827163973522867
5,28,1.001088444001523,-0.006924633196308165,0.010219542323122239
5,29,1.0010997243732704,-0.00755283349601993,0.012262958441403059
5,30,1.0011063179689774,-0.008069311809808345,0.014356559764055163
5,31,1.0011066112632945,-0.008457738662371015,0.01645475775894373
5,32,1.001099404319082,-0.008711077422216261,0.01851531604264858
5,33,1.0010840631050442,-0.008831181807751354,0.020502908243683983
5,34,1.0010605221786935,-0.008827200804906322,0.022389963205295533
5,35,1.0010292624741277,-0.008713379529858444,0.024157496370303573
5,36,1.000991166850487,-0.008506757710588167,0.02579364250830249
5,37,1.000947433110007,-0.00822517103621996,0.02729311290569327