TITLE="CMs_NON_Orthogonal Re = 10000.0"
VARIABLES = X,Y,Rho,U,V
ZONE
I = 101	J = 101
F=POINT
1,1,1.000984065418429,1.9869393988335045e-6,-2.633665730389393e-6
1,2,1.0009850824515028,5.465191260298458e-6,-1.7002970968227422e-5
1,3,1.0009850301908243,5.969498973986037e-6,-3.602158676637086e-5
1,4,1.0009852605137946,6.975948812458692e-6,-5.829147186682859e-5
1,5,1.0009854853469315,8.096965788434422e-6,-8.517020685966331e-5
1,6,1.0009856991838855,9.134682260208906e-6,-0.00011771485677804806
1,7,1.0009859255181826,9.899236136619767e-6,-0.00015682739386034943
1,8,1.0009861738275345,1.0127226978575712e-5,-0.00020365336412714378
1,9,1.0009864337044887,9.409870459269557e-6,-0.0002592981107865223
1,10,1.0009866863132053,7.159093749126956e-6,-0.00032497025717007083
1,11,1.000986903404587,2.5949121649877666e-6,-0.0004015486534437912
1,12,1.0009870579325102,-5.260110970321445e-6,-0.0004896218288803757
1,13,1.0009871348352717,-1.7569897837146956e-5,-0.0005890135519126102
1,14,1.0009871460782167,-3.565348797937573e-5,-0.0006987829957830581
1,15,1.000987146689008,-6.0937194675337716e-5,-0.0008167876327248385
1,16,1.0009872515874196,-9.487148856422005e-5,-0.0009397258294562366
1,17,1.0009876460910614,-0.00013883653313250126,-0.0010628550046586297
1,18,1.0009885869748318,-0.0001940300255964445,-0.0011801896117412617
1,19,1.0009903878577902,-0.00026137178771901696,-0.0012844538675874423
1,20,1.0009933910043207,-0.000341413107955004,-0.0013674433266398322
1,21,1.0009979246538756,-0.00043427579437652064,-0.0014201697341795388
1,22,1.001004252384029,-0.0005396014279820635,-0.0014333257941191464
1,23,1.001012516496509,-0.0006565294804927972,-0.0013975746923167078
1,24,1.0010226835590252,-0.0007836882917393315,-0.0013041156078569018
1,25,1.0010344953964219,-0.0009192183071151194,-0.0011451373655730138
1,26,1.0010474342767928,-0.0010608195671916005,-0.0009145055907565523
1,27,1.0010607081624674,-0.0012058405157981602,-0.0006083243339490517
1,28,1.0010732685219408,-0.0013513967483833036,-0.00022558425231508403
1,29,1.0010838669795281,-0.0014945214721263608,0.00023145192961762537
1,30,1.0010911514917464,-0.0016323285432283334,0.0007569758427392546
1,31,1.0010937902128778,-0.0017621941444835197,0.0013417448508393141
1,32,1.0010906086865394,-0.0018819448633923856,0.001973432044053803
1,33,1.0010807196439224,-0.0019900144124298928,0.0026374174287002485
1,34,1.0010636249492193,-0.00208550271944821,0.003317739955366667
1,35,1.0010392708510145,-0.002168133404997885,0.00399817906625663
1,36,1.0010080494113744,-0.0022381385396742057,0.004663165450084708
1,37,1.000970748835376,-0.0022961185222071514,0.005298562833412494
1,38,1.0009284670061325,-0.002342900680015418,0.005892149940485166
1,39,1.000882505141359,-0.002379419179365567,0.006433920622873356
1,40,1.0008342606981109,-0.002406618165371285,0.006916120782378321
1,41,1.0007851313869949,-0.002425385331093397,0.007333172585739965
1,42,1.0007364402537853,-0.002436508151330398,0.007681445823799336
1,43,1.0006893816238098,-0.002440653946236692,0.007959009679349491
1,44,1.0006449899755412,-0.0024383635120494656,0.008165332723170785
1,45,1.0006041237166583,-0.0024300588359544963,0.008301020617715829
1,46,1.0005674650397176,-0.0024160556570762665,0.008367566160293433
1,47,1.0005355242794154,-0.0023965828517366074,0.008367148984597039
1,48,1.000508654227555,-0.0023718011642271564,0.008302484719341518
1,49,1.0004870598997087,-0.002341825065839956,0.008176700100417367
1,50,1.0004708165798706,-0.0023067410614322813,0.007993288152125544
1,51,1.0004598763583645,-0.0022666282892530878,0.0077560365010145745
1,52,1.000454086183353,-0.002221573136990362,0.007469080237208606
1,53,1.000453188023077,-0.002171687974255384,0.007136839602135609
1,54,1.0004568384680377,-0.0021171188181522416,0.006764164013456454
1,55,1.0004646025852764,-0.0020580637906330553,0.00635621183754736
1,56,1.0004759799575855,-0.0019947673896231074,0.005918695700241834
1,57,1.000490393485938,-0.0019275443391868065,0.005457597328032188
1,58,1.0005072283759422,-0.0018567470318447343,0.004979568487171664
1,59,1.0005258163900572,-0.0017828108473807263,0.004491300978146775
1,60,1.0005454937902296,-0.001706167772029028,0.0040002446771176614
1,61,1.0005655788721783,-0.001627352285187017,0.003513315219846924
1,62,1.0005854512764711,-0.0015468094021702727,0.0030383267676069524
1,63,1.000604516163471,-0.0014651395681390938,0.002581456659451342
1,64,1.0006223018511031,-0.0013827100645372602,0.002150236635721235
1,65,1.000638400900416,-0.0013001638294788211,0.0017487307395982997
1,66,1.0006525730601281,-0.0012177233042407738,0.0013835901333293739
1,67,1.0006646575068274,-0.0011360480820272838,0.0010553381085887125
1,68,1.0006746754879623,-0.0010552230686023377,0.000769423226592606
1,69,1.0006827053175738,-0.0009759103952715495,0.0005219911417568421
1,70,1.0006889516784943,-0.0008981645287427991,0.0003173975234251072
1,71,1.0006936499411365,-0.0008225246412533722,0.0001476794848751008
1,72,1.0006971551083994,-0.0007491243357266366,1.631400958560697e-5
1,73,1.0006997152387542,-0.0006785995829927304,-8.735020537661174e-5
1,74,1.000701508715026,-0.0006111032946233782,-0.00015954385344869277
1,75,1.0007027930611403,-0.0005468478789250905,-0.0002122976936521275
1,76,1.0007039912444178,-0.00048602553649619476,-0.00024184423467627492
1,77,1.0007052105139047,-0.0004294426697267734,-0.00026008217421197473
1,78,1.0007061817898824,-0.0003775840775984105,-0.00026013739535908945
1,79,1.0007066816873795,-0.0003304684499742694,-0.0002518321586079079
1,80,1.0007069511062534,-0.0002872927950432694,-0.00022782075247503755
1,81,1.000707389860704,-0.00024733881061293707,-0.00020096073489497205
1,82,1.0007082826861677,-0.00020976049869231764,-0.00016625833113358596
1,83,1.0007096068269068,-0.00017416616684843759,-0.0001390148779175824
1,84,1.0007112536989884,-0.0001400619866816305,-0.00011426360988346636
1,85,1.0007131061954204,-0.00010785743976162621,-0.0001081036888882005
1,86,1.0007148996268376,-7.771833714940692e-5,-0.00011413088437238863
1,87,1.0007166717737976,-5.1696195315633046e-5,-0.00014737440059521323
1,88,1.000717897200263,-3.116794391023975e-5,-0.0001943023361858272
1,89,1.0007186949382274,-1.795464109258141e-5,-0.0002619724544394243
1,90,1.0007189568829429,-1.598330503424128e-5,-0.000321351681187742
1,91,1.0007187206191142,-2.041029711194235e-5,-0.0003660687599013078
1,92,1.0007280072428775,-5.18081243149362e-5,-0.0003430571398661588
1,93,1.000732241720961,-0.00011296703018082514,-0.00018304203989682585
1,94,1.0007346519835438,-0.00019576904945882412,0.00019941734079815417
1,95,1.0007351545073413,-0.0002872798041789179,0.0008556237910869188
1,96,1.0007972962696774,-0.0002630751299924529,0.0016423450161873751
1,97,1.000985813425945,-0.0010267597342310348,0.0033547663011823047
1,98,1.0002959309260697,-0.0010908121396147853,0.006573296028355664
1,99,1.0007645056245484,0.0005663005286089874,0.007669035728075504
1,100,1.0019399965353635,-0.007681730036888803,0.01641562464408015
1,101,0.9965204566548352,0.02652692118675395,0.013998262108237609
2,1,1.000982842637712,1.7050222151103907e-5,-5.449939542484726e-6
2,2,1.0009838273201066,3.7649088651406384e-5,-3.465956226246538e-5
2,3,1.000983280861273,4.6134803523718105e-5,-8.24870838144286e-5
2,4,1.000983066248617,5.557883792894723e-5,-0.00014226691522407204
2,5,1.0009827617611524,6.806328282799724e-5,-0.00021527690416592153
2,6,1.0009823210929718,8.304526243961723e-5,-0.000304573134548519
2,7,1.0009817826872818,0.00010089308706183136,-0.0004126727648948962
2,8,1.000981119845711,0.00012216020237291198,-0.000542499049320664
2,9,1.0009803042632148,0.00014727753898010216,-0.0006968858217497782
2,10,1.000979308510709,0.0001764355284330242,-0.0008784006235279342
2,11,1.0009781200299892,0.00020947475409527832,-0.0010885064841969978
2,12,1.0009767546430721,0.000245844399800852,-0.0013271527932960621
2,13,1.0009752762713604,0.0002845942162211886,-0.0015919202521588304
2,14,1.0009738140067395,0.000324404276264036,-0.001877738547014147
2,15,1.000972578101614,0.00036365608981971575,-0.002176328806180833
2,16,1.0009718649748987,0.00040055400109020205,-0.0024763306181628973
2,17,1.000972051699701,0.0004332811207063996,-0.0027633037432240777
2,18,1.0009735714903978,0.0004601472314509758,-0.003020400984251361
2,19,1.0009768777051198,0.00047969954783221404,-0.003228859924405741
2,20,1.0009823948064567,0.0004907850301235803,-0.003368939824032264
2,21,1.0009904678817385,0.0004925860804086266,-0.0034205340490913562
2,22,1.0010013095750019,0.0004846638386345581,-0.0033640710988864933
2,23,1.0010149536390398,0.0004670510326274694,-0.0031811341559263226
2,24,1.0010312107500774,0.0004404095952993577,-0.002855428462730287
2,25,1.0010496337118828,0.00040623358089808954,-0.002373633005572414
2,26,1.0010694902786859,0.000367029047723676,-0.0017266147763998559
2,27,1.0010897595640367,0.00032638680436781917,-0.0009104518705135572
2,28,1.0011091572376432,0.0002888781384003314,7.248846078728084e-5
2,29,1.0011262026973802,0.0002597513258606727,0.0012130125895177474
2,30,1.0011393205925954,0.000244445357967805,0.0024949177463672845
2,31,1.0011469784944151,0.00024798308843836624,0.0038956255288141533
2,32,1.0011478373581184,0.0002743522924139241,0.0053873142909534105
2,33,1.0011408992095947,0.0003260170061348801,0.006938723657718565
2,34,1.0011256137214657,0.00040367158882332856,0.00851708215999967
2,35,1.0011019343098213,0.0005062739917921303,0.010090119630343952
2,36,1.0010703046470706,0.0006313118557427069,0.011627657728712564
2,37,1.0010315969342898,0.0007752118306013792,0.013102864791733535
2,38,1.000987004933351,0.000933792212243216,0.014492915260849526
2,39,1.0009379295020815,0.0011026806213361453,0.015779292856987186
2,40,1.0008858580382922,0.0012776464966856333,0.016947652122086893
2,41,1.0008322705363693,0.0014548317970221956,0.017987496368719602
2,42,1.0007785579570785,0.0016308815224941233,0.0188916570299652
2,43,1.000725977265898,0.0018029932290133512,0.019655741547836635
2,44,1.0006756154993852,0.001968902850845622,0.02027758082854934
2,45,1.0006283862596332,0.0021268322264915364,0.020756695367093368
2,46,1.000585023017383,0.0022754093878250047,0.02109390457563931
2,47,1.0005460987425507,0.0024135835600880818,0.021290901224743773
2,48,1.0005120296917571,0.002540533021106134,0.021350103467736574
2,49,1.0004831038249862,0.002655587030973113,0.02127432505096996
2,50,1.0004594822212185,0.0027581458166587238,0.02106690565750971
2,51,1.000441229557855,0.0028476271062782724,0.02073140778437372
2,52,1.0004283061134422,0.0029234065383690255,0.02027206474927151
2,53,1.0004205999315354,0.0029847981996857973,0.019693393378267147
2,54,1.0004179055428257,0.0030310187306233785,0.019001028341017672
2,55,1.0004199619819736,0.0030612120502810265,0.018201083504313643
2,56,1.000426415203382,0.0030744404207476324,0.017301481118715132
2,57,1.0004368698993018,0.0030697661995062937,0.016310803431127414
2,58,1.0004508320413796,0.0030462706780775804,0.01524027182108246
2,59,1.000467786289636,0.003003201722421755,0.014101697796779257
2,60,1.0004871137269302,0.002940009973645341,0.01291033191904475
2,61,1.000508210063471,0.002856552703142989,0.011681367065751258
2,62,1.0005303713012093,0.0027531140698745234,0.010433991805615831
2,63,1.000552968585935,0.0026306242224647474,0.009185766571245929
2,64,1.000575290646977,0.002490611038272841,0.007958422492251788
2,65,1.0005967855662474,0.002335352716438276,0.006769388451541004
2,66,1.000616845291676,0.002167714205523406,0.005640175481324263
2,67,1.000635110878113,0.0019911865627986144,0.004584434502615813
2,68,1.0006511842801435,0.0018095769577122231,0.0036199867449645136
2,69,1.0006649849864155,0.0016268677257280377,0.0027530990441822153
2,70,1.0006763805756056,0.0014469213057666532,0.0019950824673115753
2,71,1.0006855538213297,0.001273442659842844,0.0013428751013083776
2,72,1.0006926036699615,0.0011094151109906727,0.0008003249990966105
2,73,1.0006979588512899,0.0009567875161533862,0.00035560925178851317
2,74,1.0007017942858443,0.0008169279981350469,7.166972227810907e-6
2,75,1.0007044360759796,0.0006914410000820211,-0.00026220976254684523
2,76,1.0007061537162654,0.0005808326815226369,-0.00045753221285958664
2,77,1.0007076194618894,0.0004828759413418815,-0.0005992554737217007
2,78,1.0007089167553755,0.00039409897702504687,-0.0006895209068476044
2,79,1.0007098460379387,0.00031360438077387493,-0.0007427028622221139
2,80,1.0007099570946996,0.0002442295975894875,-0.000756621725922213
2,81,1.000709512882734,0.00018997312365524993,-0.0007512330915170749
2,82,1.0007087712537996,0.00015363421960062074,-0.000735508976482562
2,83,1.000708160934864,0.00013622966678549767,-0.000741527037854734
2,84,1.0007073990751867,0.00013737625952814063,-0.0007839216773837668
2,85,1.0007064097911926,0.00015649995308981808,-0.0008961403150156684
2,86,1.0007047668461904,0.0001903878226971993,-0.0010875560686857892
2,87,1.0007020892081548,0.00023285490209510988,-0.0013803708512153498
2,88,1.0006988064804834,0.00027178542576136494,-0.0017624904517254782
2,89,1.0006944255213353,0.0002907352985428623,-0.0022230110488587764
2,90,1.0006908979911986,0.00027505468464460967,-0.002715485371444791
2,91,1.0006912399662018,0.00019107170243494288,-0.0031769666408176366
2,92,1.0006965665386074,7.634698157530653e-6,-0.0035073887627039306
2,93,1.0007236301908131,-0.00036691908986918214,-0.003584688303984249
2,94,1.0007358078184783,-0.0008553018363393663,-0.003216930689912575
2,95,1.0007977834349386,-0.001223717212002026,-0.002540609764061229
2,96,1.000866092881713,-0.0023844224299200455,-0.000737075937753916
2,97,1.000768714415365,-0.003886521031425557,0.0017911637882890518
2,98,1.001528436740208,-0.004656934125285078,0.0038891891577487016
2,99,1.0004281883248018,-0.010842344970312369,0.0161805830224762
2,100,0.9996323173928349,-0.012198255350827032,0.02180845813334437
2,101,1.003785225505422,0.05153525501389352,0.005628602970664568
3,1,1.0009828664360902,3.1698208994036704e-5,-5.411120578112602e-6
3,2,1.0009844234775516,8.146620677701925e-5,-3.865044781088737e-5
3,3,1.0009839744107745,0.00011049152155245079,-0.00010218599693709643
3,4,1.0009834811224658,0.0001357919769537603,-0.0001901509906717337
3,5,1.0009830877982895,0.0001653831235314099,-0.00029878720632498424
3,6,1.0009826313737902,0.00020009620235614058,-0.0004302952844357563
3,7,1.000982047683558,0.00023962711540665937,-0.0005883451400289559
3,8,1.0009813355076187,0.000283882173393201,-0.0007761605214627104
3,9,1.000980459667024,0.0003319598849857189,-0.0009961849875253436
3,10,1.000979401399211,0.00038170411863800157,-0.0012495801082269683
3,11,1.000978166575691,0.00042954829379473786,-0.0015349834887279589
3,12,1.0009767972191452,0.00047052483532487253,-0.0018479320639186835
3,13,1.0009753880356418,0.0004984883980876539,-0.0021799512040405348
3,14,1.000974098409299,0.0005064861385549515,-0.0025186078641330455
3,15,1.0009731568975748,0.0004872738328988957,-0.0028475026627211974
3,16,1.0009728548723298,0.00043393810220445646,-0.0031472590966370815
3,17,1.000973527799386,0.0003405161202261068,-0.003396380953119337
3,18,1.0009755272400014,0.00020247607803438754,-0.0035727568935312788
3,19,1.000979186416217,1.6975221459799696e-5,-0.0036546145623080973
3,20,1.0009847877255955,-0.00021708456750936728,-0.0036216387947434433
3,21,1.0009925338898789,-0.0004991034852781461,-0.0034553144209651054
3,22,1.0010025259454687,-0.0008267966077303523,-0.003139428528563309
3,23,1.001014741138509,-0.0011960724812621242,-0.0026601402191580564
3,24,1.0010290059975946,-0.0016007667455430385,-0.002006624176179763
3,25,1.0010449584478585,-0.0020323432443345424,-0.0011716752137556042
3,26,1.001062006218644,-0.002479752945047636,-0.00015294758960807318
3,27,1.0010792953538377,-0.0029296356970292454,0.0010460751344467136
3,28,1.0010957053248417,-0.003366958088389779,0.0024150073569393837
3,29,1.0011098875356352,-0.003776078123737866,0.003936366209580799
3,30,1.0011203563296118,-0.004142113201030405,0.005585851991821725
3,31,1.0011256344098294,-0.004452380655696421,0.007333802512720687
3,32,1.0011244230263152,-0.004697606709867281,0.009147012621342439
3,33,1.0011157672492113,-0.004872645518274045,0.010991192694865324
3,34,1.0010991697092915,-0.004976582166080348,0.012833028775819589
3,35,1.0010746435404922,-0.005012272344406025,0.014642144211338767
3,36,1.0010426864171418,-0.004985488752757299,0.016392146231976445
3,37,1.0010042078673753,-0.0049039000733889825,0.018061376095931406
3,38,1.0009604116885134,-0.00477607410976511,0.01963280218305843
3,39,1.0009126808898334,-0.004610643166518622,0.02109385639894555
3,40,1.0008624567331508,-0.004415687283889528,0.022435695888704157
3,41,1.0008111530004515,-0.004198346915640942,0.023652690225556033
3,42,1.0007600778399794,-0.0039646283453230475,0.02474154625922031
3,43,1.0007103980002396,-0.0037193655679216855,0.025700819104462022
3,44,1.0006631048831216,-0.003466283329413034,0.026530154428996405
3,45,1.0006190170237588,-0.0032081321295872067,0.027229966180280975
3,46,1.0005787732043812,-0.002946851351008015,0.027800869394572568
3,47,1.0005428540007681,-0.002683753896417972,0.028243532005621776
3,48,1.0005115856257172,-0.002419700306843942,0.028558292813417648
3,49,1.0004851664071353,-0.0021552767996221496,0.028745144470971328
3,50,1.0004636723847458,-0.0018909469570282014,0.028803526165574106
3,51,1.0004470815747706,-0.0016272086463314894,0.02873238919851087
3,52,1.0004352790564783,-0.0013647160319120253,0.028530188819996007
3,53,1.0004280765932714,-0.0011044145226794724,0.028194988305094572
3,54,1.000425219084705,-0.0008476274280115513,0.027724728988963002
3,55,1.0004263989039266,-0.0005961615056029715,0.027117317001109545
3,56,1.0004312672181166,-0.0003523382816415276,0.02637131128663686
3,57,1.0004394415713305,-0.00011904492467051971,0.025485881364335317
3,58,1.000450525001047,0.00010032941162405028,0.02446210291258731
3,59,1.0004641026558059,0.0003019388853307572,0.023302542005121107
3,60,1.0004797695850964,0.00048168733995389534,0.022013364414244816
3,61,1.0004971094760104,0.000635403840556295,0.020603070312193696
3,62,1.0005157307804047,0.000759209947628915,0.019085598178656422
3,63,1.0005352225993436,0.0008498060345951034,0.01747743788326702
3,64,1.0005552004307516,0.0009049348957205102,0.015801890182766006
3,65,1.0005752439146889,0.0009236513285107443,0.01408357274936121
3,66,1.000594960113089,0.0009067105300809147,0.01235408411939558
3,67,1.0006139198454644,0.0008566306858073268,0.010643025540114943
3,68,1.0006317360571901,0.0007777644557021495,0.00898563839929743
3,69,1.0006480280775283,0.0006759514113980486,0.0074100104536101085
3,70,1.0006625067274906,0.0005582228227507174,0.005947574313106769
3,71,1.0006749513339064,0.00043226584848940654,0.0046171412208965085
3,72,1.0006852377636393,0.000305711481561045,0.0034392850099847112
3,73,1.0006933969688694,0.0001850345724280179,0.0024179571252845927
3,74,1.0006996085679998,7.534503962468708e-5,0.001559148161150321
3,75,1.0007040845491728,-1.8569308249473057e-5,0.0008520815415948104
3,76,1.0007069585288337,-9.281893581249902e-5,0.00029106311951492014
3,77,1.0007086679397772,-0.00014822901864145323,-0.00014653408534137506
3,78,1.0007098215225265,-0.00019125562490481644,-0.00047458603676896416
3,79,1.00071067972406,-0.00022699714214129612,-0.0007158159220155694
3,80,1.000710792160815,-0.0002511891928483404,-0.0008764636746078265
3,81,1.0007097514744085,-0.0002509352003844962,-0.0009781153890884217
3,82,1.0007076995364659,-0.00021203942126153138,-0.0010418761762451087
3,83,1.000705199181549,-0.00012567593218060588,-0.0011153477592439089
3,84,1.0007026459972879,9.452682511704415e-6,-0.0012409792218708317
3,85,1.0007000443480125,0.00018790967964283083,-0.0014709982649435624
3,86,1.0006970324400177,0.0003962629970088531,-0.001833570988332127
3,87,1.0006934540940053,0.0006078721833002662,-0.002347472683189351
3,88,1.0006882373839041,0.0007893669965088781,-0.0029889478132863116
3,89,1.000683378229226,0.0009007879833899685,-0.003723737016171913
3,90,1.0006786754304364,0.0008920703228449354,-0.004456895208777357
3,91,1.0006764670011419,0.0007289228087731358,-0.0051096543354952435
3,92,1.0006811528018156,0.00031387154763563445,-0.005537534288796941
3,93,1.0006759537343064,-0.00034067353723850655,-0.0056884041284743555
3,94,1.000734785551684,-0.0011556800233321872,-0.005683431161394539
3,95,1.000744056418272,-0.002560648663228038,-0.004667837426156512
3,96,1.0006155021386973,-0.0037739917022360154,-0.0035580292321399335
3,97,1.0010707049217757,-0.0055000164836246914,-0.003051301998362512
3,98,1.0006956353679866,-0.012553960103121242,0.0035473503600594964
3,99,0.9995225439588373,-0.01699479324859306,0.005928503360685402
3,100,1.0005941961618108,-0.0027113987091072858,-0.0006179564805619652
3,101,1.000515873145814,0.05520408226854615,-0.0019211545313754762
4,1,1.0009825225918612,5.110337781138871e-5,-6.696772190228661e-6
4,2,1.0009842967695934,0.00013628713138338843,-4.613080742273968e-5
4,3,1.0009840708599318,0.00019772167390320251,-0.00012250937737109705
4,4,1.0009836097008915,0.00024989782480325777,-0.0002317744283512833
4,5,1.0009830722622741,0.00030393348257448855,-0.00036837326660367947
4,6,1.0009826395928592,0.00036618557504893755,-0.000529865585218555
4,7,1.000982164406561,0.0004378486863775109,-0.0007181904921345015
4,8,1.0009815703699267,0.0005181189327552595,-0.0009355731096746656
4,9,1.0009808658527488,0.0006051931069528346,-0.001181542234077284
4,10,1.0009800512034814,0.0006954075974834642,-0.001452895314061773
4,11,1.000979153523295,0.0007830200986213289,-0.001742526369135089
4,12,1.000978235061775,0.0008605377387200316,-0.00203921995442384
4,13,1.000977397743522,0.0009193862368132877,-0.002327291381197993
4,14,1.0009767891854344,0.0009508210464460312,-0.002587613211858902
4,15,1.0009765967658835,0.0009468978394444131,-0.0027985692172675996
4,16,1.0009770348954437,0.0009013362678441446,-0.0029380712801856156
4,17,1.0009783241579344,0.0008100695142961859,-0.0029848877842326526
4,18,1.000980670926971,0.0006713285554368682,-0.0029202193226668827
4,19,1.000984249473762,0.0004852807229307699,-0.0027279385620081246
4,20,1.000989195304713,0.0002534416437302919,-0.0023947316698140052
4,21,1.0009956060969105,-2.180806781556775e-5,-0.001909155013726853
4,22,1.001003545551754,-0.0003372922897554558,-0.0012612932727199505
4,23,1.00101303197023,-0.0006885638654042811,-0.0004423389088531558
4,24,1.001024000158869,-0.0010690076954758608,0.0005544193271737551
4,25,1.001036234936533,-0.0014688877990542539,0.00173237269713533
4,26,1.001049290766589,-0.0018747736941865812,0.0030893468595253864
4,27,1.0010624246431024,-0.002269701838338659,0.004616038766193459
4,28,1.00107456700275,-0.0026342259620142933,0.006294620927380241
4,29,1.001084368844216,-0.002948285290604853,0.008099148157464682
4,30,1.0010903246625327,-0.0031935292266991227,0.009996761779726672
4,31,1.0010909674019803,-0.003355559663819486,0.011950584334414632
4,32,1.0010850667361806,-0.0034255367197905313,0.013922511976440583
4,33,1.0010718070772067,-0.003400833285188486,0.015876472212312545
4,34,1.0010508748101303,-0.003284701351794483,0.0177803847746513
4,35,1.0010224852716956,-0.0030851916537930155,0.0196078894926069
4,36,1.0009873118874455,-0.002813661204315644,0.021338515365977334
4,37,1.000946399389032,-0.0024832251013881695,0.022957857756595968
4,38,1.0009010223032428,-0.0021073857872605105,0.024456566622252245
4,39,1.0008525849475407,-0.0016989881812606298,0.025829854125469665
4,40,1.0008024944669232,-0.0012695176175003264,0.027076153628207096
4,41,1.0007521053250479,-0.0008287245997264774,0.028196630575638815
4,42,1.0007026369165137,-0.0003844961716788574,0.029193963359267966
4,43,1.000655169550718,5.708292711010488e-5,0.030072114236836454
4,44,1.0006105991762142,0.0004915612411755659,0.030835342039890114
4,45,1.0005696681382388,0.0009158817300651385,0.031488245476089596
4,46,1.0005329385985513,0.0013281270169068554,0.03203496202768031
4,47,1.0005008392186914,0.0017272580136342627,0.03247941020314119
4,48,1.0004736427399348,0.0021128761001789386,0.032824591866931034
4,49,1.000451516111351,0.002484996968033799,0.03307295558003926
4,50,1.0004344950467063,0.0028438557906421153,0.0332257345115682
4,51,1.0004225317357702,0.0031897182110805938,0.033283378270705655
4,52,1.0004154651416148,0.003522719352927247,0.03324489365655976
4,53,1.000413065011084,0.003842694004368903,0.03310832696523936
4,54,1.0004150007449821,0.004149035460487873,0.03287012612283464
4,55,1.0004208833121662,0.004440532102596236,0.032525695470450734
4,56,1.000430238430586,0.004715249422453126,0.03206887319077657
4,57,1.0004425495676184,0.004970385710818723,0.03149261970439943
4,58,1.0004572428328031,0.005202217208953589,0.030788804315727194
4,59,1.0004737335446785,0.005406028660445469,0.029949095667877217
4,60,1.000491428776417,0.0055762087158503755,0.028965345282418013
4,61,1.0005097743846774,0.005706354768031044,0.0278306501371279
4,62,1.000528274102777,0.005789631799935931,0.026540629507067853
4,63,1.0005465221629692,0.005819149060642799,0.025094324756113374
4,64,1.0005642257815524,0.005788636015681339,0.023496502039637872
4,65,1.0005811984629334,0.005693074941669552,0.021757521496839318
4,66,1.0005973703962217,0.0055295623792138,0.019896476707813
4,67,1.0006127220285161,0.005297940946950985,0.017938653643938096
4,68,1.0006272885761665,0.0050014536154465794,0.015919133537809625
4,69,1.0006410550352862,0.004646921231328131,0.01387647989698091
4,70,1.0006539972352138,0.0042447158510889385,0.011856716682016454
4,71,1.0006659728620284,0.0038081448271000164,0.009902995077337459
4,72,1.0006768295348123,0.0033526020193740476,0.008060862109990716
4,73,1.0006863359897769,0.002894060542668471,0.006365041621953212
4,74,1.0006943934499113,0.0024476377651674237,0.004846991671612882
4,75,1.000700933056972,0.002026945723520064,0.0035217658743946956
4,76,1.0007059229961885,0.0016441443522133348,0.002400515898939639
4,77,1.000709288119582,0.0013070116852757544,0.0014772313503158064
4,78,1.0007114316810013,0.00101429477725101,0.0007404410996040222
4,79,1.000712994006464,0.0007582812307586072,0.00016472793932435735
4,80,1.000714207745529,0.0005384427513694213,-0.000266960219210817
4,81,1.000714484144927,0.0003715817052384024,-0.0005737579195478355
4,82,1.0007133735347995,0.00028712927496126806,-0.0007762138407176204
4,83,1.0007112544846104,0.0003104820447412657,-0.0009214572018810315
4,84,1.0007089842884915,0.00044882559836411333,-0.0010700971465189895
4,85,1.00070731082514,0.0006886554900321086,-0.0012921533728906236
4,86,1.0007063147941135,0.0009918579616631433,-0.0016318484719306868
4,87,1.0007048226114206,0.0012996854861925726,-0.00210148626594302
4,88,1.0007034664954875,0.0015409338287418824,-0.0026655956566695622
4,89,1.0007005739396546,0.0016364460310159946,-0.0032397145239067447
4,90,1.000699597561017,0.001522731873921428,-0.003734524012258215
4,91,1.0006985486248208,0.0011144356279861759,-0.003998642492593439
4,92,1.0006905422838328,0.00046268742550762624,-0.0040239135928262434
4,93,1.0007300177769463,-0.000405409605169647,-0.003916694745349982
4,94,1.000706207783728,-0.0019202748853909086,-0.0030974460086986497
4,95,1.0006685800782158,-0.0032517833484028533,-0.002616478857296522
4,96,1.0009940274863836,-0.004644489819160098,-0.002203349185520918
4,97,1.0005936643559614,-0.010011199651470416,0.002431840601774306
4,98,1.0000606248219925,-0.014467536303932675,0.0029627324210739162
4,99,1.0009024901146835,-0.010728634343991827,-0.0020888467934626286
4,100,1.0012934641754736,-0.0015057957940087599,-0.002460595118782506
4,101,0.9997899371846932,0.05210556027489908,-0.000549556189632052
5,1,1.0009822850090753,7.153962523757251e-5,-7.626695696813802e-6
5,2,1.0009842465392642,0.00019808337374433279,-5.284461127610125e-5
5,3,1.0009839963843703,0.0002963510555490072,-0.0001399396473204153
5,4,1.000983673860089,0.00037956935890874947,-0.0002623826991804353
5,5,1.000983190026589,0.00045878771616388964,-0.00041420199124239464
5,6,1.00098269292204,0.0005432548932678828,-0.0005905975267730269
5,7,1.000982278261694,0.0006368837468736099,-0.0007885843254409569
5,8,1.0009818056409632,0.0007368910899025515,-0.0010069368303098072
5,9,1.0009812130173796,0.0008369636910443608,-0.001241462385071698
5,10,1.0009805210179867,0.000928406383337132,-0.0014836410370939147
5,11,1.0009797430789023,0.000999903043668308,-0.0017203983071703997
5,12,1.0009789128605737,0.0010382562779975516,-0.001935034470387614
5,13,1.000978094239651,0.0010298395349817926,-0.002107662104270745
5,14,1.0009773844731527,0.0009622160358521467,-0.002217362062998036
5,15,1.0009769147319327,0.0008255551438546915,-0.0022436318188800907
5,16,1.0009768443218907,0.0006134896099361527,-0.002168616328305682
5,17,1.0009773498244774,0.00032320212506688683,-0.0019775786785308004
5,18,1.0009786206665328,-4.5243447966787024e-5,-0.0016592297858269254
5,19,1.0009808615575695,-0.000490007406568918,-0.0012040614540581292
5,20,1.0009843080204066,-0.0010084451674125475,-0.0006030968794514548
5,21,1.0009892379461287,-0.001597367102858287,0.00015400546125154697
5,22,1.0009959601665086,-0.002252266670857476,0.0010787676843796454
5,23,1.0010047549185568,-0.0029656773903656178,0.002183024048871608
5,24,1.001015762701741,-0.0037252560312984752,0.00347559306626399
5,25,1.0010288463199029,-0.0045124103375439725,0.004959111419092934
5,26,1.0010434567848814,-0.005302150456225766,0.006626152905200348
5,27,1.0010585635381957,-0.006064531573041127,0.008457707584298904
5,28,1.0010726749302452,-0.006767572907829635,0.010422781214658186
5,29,1.0010839963366176,-0.007381070138525172,0.012481344638347847
5,30,1.0010906592798936,-0.007880335842751654,0.014587873203789934
5,31,1.00109100694715,-0.008248956697513868,0.016696642894531565
5,32,1.0010838011398526,-0.008479984494054793,0.018765335400079707
5,33,1.001068382910873,-0.00857554508951493,0.020758660837975586
5,34,1.0010446759592593,-0.008545215815154415,0.022649163909637237
5,35,1.0010131665618325,-0.008403775480120446,0.02441808757732765
5,36,1.000974753128985,-0.008168842442735337,0.026053829918863687
5,37,1.0009306586795765,-0.007858822748296074,0.027551424487407574