TITLE="CMs_NON_Orthogonal Re = 10000.0"
VARIABLES = X,Y,Rho,U,V
ZONE
I = 101	J = 101
F=POINT
1,1,1.0008317360891805,3.841406828763447e-6,-4.3220259951920315e-6
1,2,1.0008334518228343,9.043662718250196e-6,-2.7471480424625844e-5
1,3,1.0008332755081597,8.930575028327498e-6,-5.554577317352101e-5
1,4,1.0008337384730075,9.98126290185167e-6,-8.594045401296171e-5
1,5,1.0008343615974267,1.1332157575596171e-5,-0.00012109058555453621
1,6,1.000835091760646,1.2558050614818283e-5,-0.00016191546730251664
1,7,1.000835976105008,1.3584037472845374e-5,-0.00020893782824014647
1,8,1.0008370490682288,1.4277471972195415e-5,-0.00026310627644306325
1,9,1.0008383106839056,1.4329340518837153e-5,-0.0003253067687031542
1,10,1.0008397562900915,1.3277769177532475e-5,-0.0003964040101267954
1,11,1.0008413765658053,1.0529700720519668e-5,-0.00047674226943613426
1,12,1.000843166365298,5.3549942669935685e-6,-0.0005662163447620603
1,13,1.0008451353486216,-3.0933561539307397e-6,-0.0006637431014319835
1,14,1.0008473259083952,-1.573305824586527e-5,-0.0007673200286969828
1,15,1.00084982897897,-3.349299765740882e-5,-0.0008736227943790525
1,16,1.0008527940518217,-5.723171857878323e-5,-0.0009782149014116333
1,17,1.0008564254153216,-8.766380136282638e-5,-0.0010753945116338574
1,18,1.0008609638300816,-0.0001252866008461709,-0.0011586010469547513
1,19,1.0008666515781308,-0.00017033921669545028,-0.00122048478256709
1,20,1.0008736889910514,-0.0002227729057580704,-0.001253404451128437
1,21,1.0008821860000552,-0.0002822511708572702,-0.0012495846173712895
1,22,1.0008921183228998,-0.00034815136449831857,-0.0012015920384543233
1,23,1.000903290596099,-0.0004195827487567715,-0.0011025223013662556
1,24,1.0009153141042801,-0.0004953993523715242,-0.0009464692935474076
1,25,1.0009276001855278,-0.0005742247263519898,-0.0007287914953004588
1,26,1.000939374179702,-0.0006544777393818853,-0.0004466402325809869
1,27,1.0009497064079267,-0.0007344223469744137,-9.930775325043937e-5
1,28,1.0009575603419951,-0.0008122400496393515,0.0003112922999134235
1,29,1.000961858810941,-0.0008861401752890022,0.000780465864410642
1,30,1.0009615726494072,-0.0009544860651648138,0.001300672860243411
1,31,1.0009558216267085,-0.0010159228473376662,0.00186189520010678
1,32,1.0009439703014877,-0.001069473626429225,0.002452138623251796
1,33,1.0009257003039398,-0.0011145902785649983,0.0030582515172532716
1,34,1.0009010484436023,-0.0011511415496495148,0.0036666949295088443
1,35,1.0008704047173789,-0.001179355062713003,0.004264374719915933
1,36,1.0008344728633602,-0.0011997276078239518,0.004839226462641613
1,37,1.0007942022577823,-0.001212931846096278,0.005380715255205112
1,38,1.0007507050099878,-0.0012197279534246692,0.005880042884437899
1,39,1.0007051710953188,-0.0012208945564110968,0.006330273218028172
1,40,1.0006587926011077,-0.001217175636989387,0.0067262306691954835
1,41,1.0006127025755,-0.0012092486263674488,0.007064388233757465
1,42,1.000567931846934,-0.0011977051301737902,0.007342619980086346
1,43,1.000525381571318,-0.0011830465472756609,0.007560008253122791
1,44,1.0004858109384909,-0.001165685518370275,0.007716583773746211
1,45,1.000449833950994,-0.0011459557826712138,0.007813151924945439
1,46,1.0004179255089765,-0.001124122537190304,0.007851091905736938
1,47,1.0003904290038899,-0.0011003970786276488,0.007832242073831376
1,48,1.00036756932053,-0.0010749488841581853,0.007758782295914937
1,49,1.0003494613978379,-0.0010479202199057806,0.007633179127289101
1,50,1.0003361237215795,-0.0010194364470393225,0.007458151515770344
1,51,1.0003274828309507,-0.0009896189168961604,0.007236655161491971
1,52,1.000323385673416,-0.0009585915274288787,0.006971924554419581
1,53,1.000323598644119,-0.0009264919115017567,0.006667461057559118
1,54,1.000327820652973,-0.0008934716763184734,0.00632714691494028
1,55,1.000335677411112,-0.000859707347274064,0.005955182560651232
1,56,1.0003467393768928,-0.000825389169490366,0.005556280300170472
1,57,1.0003605128847393,-0.0007907365004574276,0.005135463676469947
1,58,1.0003764683516871,-0.0007559651369292142,0.0046983804681744006
1,59,1.0003940293509759,-0.0007213199492580634,0.004250820119146166
1,60,1.0004126160128717,-0.0006870017238663956,0.0037992639487419407
1,61,1.0004316309966113,-0.0006532466091453586,0.0033498769193238856
1,62,1.0004505200528222,-0.0006201777820828175,0.0029095831955161917
1,63,1.0004687498368892,-0.0005879882205836768,0.002484111099687588
1,64,1.0004858826238319,-0.0005566582013436258,0.0020801942624802923
1,65,1.0005015379908013,-0.0005263256724437042,0.0017019523670006986
1,66,1.0005154711721782,-0.0004968005035986805,0.0013552616538603645
1,67,1.0005275109869527,-0.0004681811733441893,0.0010414077767044512
1,68,1.0005376352764368,-0.0004401484616550567,0.0007649613902941026
1,69,1.0005458847816708,-0.000412796197474664,0.0005235937377792384
1,70,1.000552410200112,-0.00038581542572244896,0.00032052650350280153
1,71,1.0005573844213849,-0.00035928404837584583,0.00014996213788309544
1,72,1.0005610834631393,-0.00033297516038230173,1.398241782978218e-5
1,73,1.0005637547286956,-0.0003071094468063371,-9.574298953120369e-5
1,74,1.000565580536475,-0.00028168806964627626,-0.00017729545523234127
1,75,1.0005667412681472,-0.0002567896847039624,-0.0002400737324788516
1,76,1.000567615163017,-0.00023242665728894464,-0.00028214888070140755
1,77,1.000568469833927,-0.00020924774593645106,-0.0003129358053580297
1,78,1.0005691907991752,-0.00018793676914828682,-0.0003276880321293496
1,79,1.0005695071424108,-0.0001688455165643508,-0.0003327344996514594
1,80,1.0005695326271986,-0.00015143283235174553,-0.0003214658222180982
1,81,1.0005697089712142,-0.00013498004708459828,-0.00030236178132482137
1,82,1.0005704915347686,-0.00011870226960930883,-0.0002719653124946379
1,83,1.0005720154471252,-0.00010226584731279854,-0.00024219070012220518
1,84,1.000574211132443,-8.531619314854854e-5,-0.0002107082252178456
1,85,1.000576972804397,-6.811369724700514e-5,-0.00019040502034901665
1,86,1.0005800277930934,-5.0504481060415084e-5,-0.00017835473730583513
1,87,1.000583394148949,-3.428580696467307e-5,-0.00018696474463923736
1,88,1.0005864418736907,-2.123866366570374e-5,-0.00020647217748724774
1,89,1.000589046553886,-1.3375640317893958e-5,-0.00024036174771663248
1,90,1.0005911611166323,-1.5349849255834793e-5,-0.000263054869606562
1,91,1.0005923937910193,-2.2979022315511138e-5,-0.0002643472687980125
1,92,1.0006023748043287,-5.5833102896477945e-5,-0.0001951881699480596
1,93,1.000606540812174,-0.00011711113029245643,1.27818681973038e-5
1,94,1.0006069838080849,-0.0001940260236399794,0.0004342025963769725
1,95,1.0006067479875385,-0.0002779797167620613,0.0011075754162955757
1,96,1.0006636012764583,-0.00023971095774651878,0.0018792113112612368
1,97,1.0008466775069749,-0.000981086974049687,0.00352079861297972
1,98,1.0001656472509788,-0.0010512206558960782,0.006633877093854476
1,99,1.000620242493966,0.0005959183919866378,0.007646030723544674
1,100,1.0017989180713052,-0.007690623001394719,0.01638197528238013
1,101,0.9963963537588996,0.026523727375043073,0.013996748141108512
2,1,1.000829831708889,2.7536818948339358e-5,-8.989174599634924e-6
2,2,1.0008315496540592,5.762257690686054e-5,-5.5235577165788004e-5
2,3,1.0008306042831328,6.378541093436798e-5,-0.00012388070299806085
2,4,1.0008306094338901,7.192562235903452e-5,-0.00020180044706761638
2,5,1.0008307571251267,8.457904362721964e-5,-0.00029208821825156106
2,6,1.0008308492805944,9.893443057515448e-5,-0.0003987158653041862
2,7,1.0008309979840737,0.00011527418046802585,-0.000523266750876304
2,8,1.0008312136982163,0.000134365795119036,-0.0006679733354775827
2,9,1.000831486953636,0.00015633384941422725,-0.0008351117419928202
2,10,1.0008318178272382,0.00018081395103829897,-0.0010263830943500894
2,11,1.0008322322068854,0.00020701083852700934,-0.0012418988839318207
2,12,1.0008327893386106,0.00023365480979531343,-0.0014798022958018083
2,13,1.0008336001732396,0.0002590192724482907,-0.0017353988209564497
2,14,1.0008348434901817,0.00028106528095729453,-0.002001035970223708
2,15,1.0008367741798485,0.0002976537624066266,-0.0022658018624764284
2,16,1.000839713219139,0.0003067773154016764,-0.002516105291120555
2,17,1.000844021536429,0.0003067665878863065,-0.0027360892617742283
2,18,1.0008500550510422,0.0002964222779651842,-0.0029086983896131563
2,19,1.0008581144258633,0.00027505835071211295,-0.003016338346419697
2,20,1.0008683926222803,0.00024247200913019324,-0.0030418505629657157
2,21,1.0008809338355111,0.00019889031885017588,-0.0029689382234790755
2,22,1.000895601537569,0.00014494183464765177,-0.0027828285188522496
2,23,1.00091206289301,8.16946302064418e-5,-0.0024705537925085053
2,24,1.000929781590394,1.076879987100973e-5,-0.002021637052422275
2,25,1.0009480230783294,-6.549927222370399e-5,-0.0014286510673175142
2,26,1.000965862704779,-0.00014391316565868167,-0.0006882392852648841
2,27,1.0009822065724254,-0.00022039622109871468,0.00019807741958025626
2,28,1.0009958300477004,-0.000290193741289718,0.0012230467348065038
2,29,1.0010054554882244,-0.0003483065070537508,0.002373533325637226
2,30,1.0010098577418882,-0.00039005771380028805,0.003630769593908773
2,31,1.0010079882436715,-0.00041164518417372985,0.004971424912137882
2,32,1.0009990847331758,-0.0004105605482507581,0.006368944130710961
2,33,1.0009827577468882,-0.0003858030772235988,0.007795314125591419
2,34,1.000959026944592,-0.0003378684270094215,0.009222641110186584
2,35,1.0009283150634554,-0.0002685413480247468,0.010624668731172375
2,36,1.000891390840422,-0.00018056268751196595,0.011977771228231194
2,37,1.0008492901420671,-7.725069304188761e-5,0.013261687371570038
2,38,1.0008032153562563,3.785443404604553e-5,0.01445972633095339
2,39,1.0007544461423816,0.0001612810426808188,0.015558793163821137
2,40,1.0007042529439427,0.0002898326031849132,0.01654906635678112
2,41,1.0006538396862852,0.00042071293279825813,0.017423647862173163
2,42,1.000604294659813,0.0005515803339469223,0.018178052460138466
2,43,1.0005565719401364,0.0006805494174679864,0.018809767382622255
2,44,1.000511474182281,0.0008061540912303889,0.01931778538021468
2,45,1.0004696609475423,0.00092728992483383,0.019702223315594458
2,46,1.0004316484368512,0.0010431418779161545,0.01996401135773524
2,47,1.0003978307469656,0.00115311233490588,0.02010461126565761
2,48,1.0003684835365447,0.0012567458122037167,0.020125904531782614
2,49,1.000343789029069,0.0013536656544634173,0.020029988927655066
2,50,1.0003238355568946,0.0014435091684535943,0.019819287141911994
2,51,1.0003086426176995,0.0015258830067851877,0.019496367144785864
2,52,1.000298152064204,0.0016003133566062895,0.01906430148855942
2,53,1.0002922536344212,0.001666226733144696,0.018526429399230413
2,54,1.0002907654359228,0.0017229186112730616,0.017887018722791494
2,55,1.0002934633390235,0.0017695688977183328,0.017150845251788886
2,56,1.0003000488850142,0.001805234160957752,0.016324233863814132
2,57,1.0003101886075274,0.0018289102002138694,0.015414259597254955
2,58,1.0003234672757388,0.0018395522106835662,0.014430269198544054
2,59,1.0003394461313369,0.0018361938269850356,0.013382405809440445
2,60,1.000357598761318,0.0018179905383035988,0.012283746691051435
2,61,1.0003773999134884,0.001784388840862731,0.01114773568047377
2,62,1.0003982399135478,0.0017351677012470337,0.009991145084079634
2,63,1.000419556155238,0.0016706229010582706,0.008829910269012382
2,64,1.000440718981908,0.0015915617703854165,0.007683271371538841
2,65,1.0004612134120596,0.0014994349353411019,0.006567498426968098
2,66,1.0004804853940203,0.0013962326130578086,0.005501798756868247
2,67,1.0004981707464704,0.0012845168594980624,0.004499539541910652
2,68,1.00051388910328,0.0011672052698265126,0.003576694431923758
2,69,1.000527507463284,0.0010474461175762676,0.002740416726155241
2,70,1.0005388766609475,0.0009283482791282504,0.002000746633363722
2,71,1.0005481022101548,0.0008129437091132304,0.0013566663880705606
2,72,1.0005552355566276,0.0007038543425934668,0.0008112515146167316
2,73,1.000560596126438,0.0006029254275481545,0.0003555016972482037
2,74,1.0005643807023823,0.0005112358072243803,-1.3075427079913392e-5
2,75,1.0005668991801158,0.00042985270478285837,-0.0003085209413042879
2,76,1.0005683730217831,0.0003592839573143061,-0.0005362234399844181
2,77,1.0005694317882325,0.00029766446749286696,-0.0007127635049007143
2,78,1.0005704122167263,0.0002408909192895253,-0.0008411560339776623
2,79,1.0005713126116054,0.0001862622198446864,-0.0009311614243936298
2,80,1.0005716781538552,0.00013543063502108573,-0.0009785775451228672
2,81,1.0005715660676144,9.307250485320318e-5,-0.0009951428909312882
2,82,1.0005712214061673,6.379094070150912e-5,-0.000987606020831859
2,83,1.0005711787866778,5.022018267376056e-5,-0.0009828312066917336
2,84,1.000571340202129,5.288854849065524e-5,-0.0009977408862166693
2,85,1.0005716727626095,7.211120043477311e-5,-0.0010640665991195222
2,86,1.0005718685195872,0.00010577425527991378,-0.0011970429853645742
2,87,1.0005714368889254,0.000147597739024079,-0.0014196622517029256
2,88,1.0005707440350107,0.00018444755227155134,-0.0017261621844289162
2,89,1.000569115288678,0.00019903965734077318,-0.002103587817681432
2,90,1.00056806258728,0.00017713264498656593,-0.0025082597271488998
2,91,1.0005705994933298,8.58587683560675e-5,-0.002874178966589006
2,92,1.0005769837696317,-0.0001019103517344651,-0.0031051459368198874
2,93,1.0006032850799733,-0.00046662232428116554,-0.0030875058182508984
2,94,1.0006128917548982,-0.0009254894915626244,-0.0026488268537905885
2,95,1.0006678105801863,-0.0012277516345601557,-0.0019570406095157414
2,96,1.0007296722679924,-0.002291894697456442,-0.00023954003782451636
2,97,1.0006284653605273,-0.003707073544225046,0.0021166979026289927
2,98,1.0013791210773193,-0.004434777325482315,0.003969479220465055
2,99,1.0002841386786747,-0.010774869743758018,0.016119903955646775
2,100,0.9995087553073979,-0.012255538470922473,0.02177370497067195
2,101,1.0036529478394436,0.0515134127216825,0.005625318117083152
3,1,1.0008299325661465,5.22165248654746e-5,-8.466506166391417e-6
3,2,1.0008324636383306,0.00012326660548975352,-5.801266053781749e-5
3,3,1.0008315937612504,0.00014949819958722554,-0.00014319266565938394
3,4,1.0008311621537775,0.0001706561013997699,-0.00025067578043183147
3,5,1.000831251934556,0.0002000386658286237,-0.00037617470233012543
3,6,1.000831361642126,0.00023425605169850614,-0.0005237031524352162
3,7,1.000831427948786,0.00027163429478142256,-0.0006967719631679292
3,8,1.0008315520451652,0.00031280018161220267,-0.0008974134947794553
3,9,1.0008317260861082,0.0003568334658947604,-0.0011271557339771108
3,10,1.0008319518290456,0.00040090973046280387,-0.001386119987365845
3,11,1.0008322714471518,0.0004407517166941099,-0.0016713127331411015
3,12,1.000832770391915,0.0004707769834919324,-0.001976088984555056
3,13,1.0008335891191351,0.00048445230723369017,-0.0022893615984881563
3,14,1.0008349316386236,0.00047495561123850463,-0.002596031129953738
3,15,1.000837061730362,0.0004359864590739348,-0.002877452320359243
3,16,1.0008402810859276,0.0003625004491787045,-0.00311304446546918
3,17,1.0008448921095279,0.00025119459169248813,-0.0032815553635660234
3,18,1.0008511542603227,0.00010065297837229454,-0.003362742137992506
3,19,1.0008592422676297,-8.881982900728538e-5,-0.003338083692962934
3,20,1.000869217035798,-0.0003155330632370786,-0.0031914632854264414
3,21,1.000881010601298,-0.000576722951019831,-0.0029089211231505315
3,22,1.000894424613919,-0.0008686812596474215,-0.0024787204908213807
3,23,1.0009091322380363,-0.0011866242045354065,-0.0018911475481431974
3,24,1.0009246741665123,-0.0015243385726192431,-0.0011392133274629654
3,25,1.000940440518553,-0.0018737717295603286,-0.00021947726676616844
3,26,1.0009556432661784,-0.0022248289269655723,0.0008663993583482221
3,27,1.0009693041625511,-0.0025656481758222927,0.0021106312993470796
3,28,1.0009802841066735,-0.002883447594639069,0.0034985342609830713
3,29,1.0009873666748004,-0.003165781649794868,0.005009024992215828
3,30,1.0009893762889213,-0.003401874840373889,0.006615633991932354
3,31,1.0009853153092456,-0.003583721557306073,0.008288522542409568
3,32,1.000974483903779,-0.00370674164466954,0.009996435423364381
3,33,1.000956569174768,-0.003769915437538139,0.011708935253154872
3,34,1.0009316727095745,-0.003775437914760257,0.013397907709334305
3,35,1.0009002925494663,-0.0037280362693436295,0.015038887847667864
3,36,1.000863251302354,-0.003634127411266184,0.016611468639483058
3,37,1.000821611228481,-0.0035009850858478235,0.01809958848577678
3,38,1.0007765686379118,-0.0033360258605717456,0.019491097523036075
3,39,1.0007293703500861,-0.003146274983276599,0.020777465269564484
3,40,1.000681229505189,-0.0029380149288610827,0.021953004194728506
3,41,1.0006332786133876,-0.0027166010648380407,0.02301443771497592
3,42,1.0005865229140203,-0.00248640321356451,0.023960119162460367
3,43,1.0005418308174407,-0.002250843104415476,0.024789688449590574
3,44,1.0004999163974981,-0.0020124871066029416,0.025503426293535175
3,45,1.000461353477655,-0.0017731771621504202,0.026102063979922954
3,46,1.0004265729296993,-0.001534170992167656,0.026586297231085052
3,47,1.0003958865388705,-0.0012962913592472754,0.026956733774566633
3,48,1.0003694884917045,-0.0010600631116352694,0.02721355230717034
3,49,1.000347480257218,-0.0008258515714886207,0.027356550039340094
3,50,1.0003298713328992,-0.0005939806815045595,0.027384939852107777
3,51,1.0003166012295057,-0.0003648555306162621,0.02729746333685507
3,52,1.0003075389490925,-0.00013905926815023048,0.02709235080039524
3,53,1.000302501113906,8.254015749743074e-5,0.02676747243801612
3,54,1.0003012522219417,0.0002987196861382511,0.026320528757359966
3,55,1.0003035189573617,0.0005078186202301631,0.02574920593647309
3,56,1.0003089941624157,0.0007077141103571866,0.025051708181999574
3,57,1.000317346569103,0.0008957874386197408,0.024226842100168882
3,58,1.0003282307245018,0.0010689815715701266,0.02327503165798956
3,59,1.00034128913707,0.0012238544228252506,0.022198153959764433
3,60,1.0003561685525681,0.0013567608801692476,0.021001170808510328
3,61,1.0003725092099782,0.00146402365501564,0.019691357019001435
3,62,1.000389966633562,0.001542254797962769,0.018280632552765748
3,63,1.0004081839595158,0.001588625600394642,0.016783593027389573
3,64,1.0004268200782385,0.001601270240242204,0.015220575714002423
3,65,1.0004455079361123,0.0015795420967417504,0.013613743609752557
3,66,1.000463895411216,0.001524343147907087,0.011990969531887923
3,67,1.0004816036472233,0.001438197278634215,0.010379328002968464
3,68,1.000498281078201,0.0013253099412472225,0.0088101485021407
3,69,1.0005135794761173,0.001191275582988695,0.007309752308159554
3,70,1.0005272198146562,0.0010427893308869538,0.005906334181120033
3,71,1.0005389844745545,0.0008871596184362908,0.004618504412971915
3,72,1.000548741312185,0.0007317738776335357,0.003464899554936762
3,73,1.0005564655856625,0.0005831843291233262,0.0024513466895494363
3,74,1.0005622754096377,0.0004465283022729161,0.0015833918903054166
3,75,1.0005663912811809,0.0003259222985691163,0.0008534277697617745
3,76,1.0005689872364332,0.00022450562230236313,0.00025632080182845583
3,77,1.0005703988090353,0.00014165248020058048,-0.00022497378543717434
3,78,1.0005712183320006,7.06770274560855e-5,-0.0006022081821788453
3,79,1.0005719439081924,3.591738692433515e-6,-0.0008927573126455243
3,80,1.0005723912901963,-5.943512641101893e-5,-0.0011003652475494617
3,81,1.0005720505750093,-0.000106868264271589,-0.0012366915177992334
3,82,1.0005707682209404,-0.00012189140936377765,-0.0013151409911868687
3,83,1.0005689373273958,-9.111683947417029e-5,-0.001373320790282951
3,84,1.0005670747153907,-8.940240128548748e-6,-0.001453389463478829
3,85,1.0005654350228328,0.00012347068555593736,-0.0016087412103767697
3,86,1.0005639052613773,0.00029679596576829436,-0.001878355691065799
3,87,1.0005624016612358,0.000484881978991441,-0.002289861378033519
3,88,1.0005596559703334,0.000650627873316763,-0.002831006705014716
3,89,1.0005573746270862,0.0007497073624092462,-0.003470493833958399
3,90,1.0005551499379375,0.0007280818739190205,-0.0041157373075242434
3,91,1.00055445180896,0.000552745879778861,-0.004682306039675351
3,92,1.0005600975775963,0.0001360513266089951,-0.0050317994955421
3,93,1.000554532554355,-0.0004956061065325089,-0.00511250653718002
3,94,1.000609978420795,-0.0012312499044024284,-0.005074311391913691
3,95,1.000615232885979,-0.0024860643123834603,-0.004094731136899961
3,96,1.0004834860037994,-0.0035027189504991114,-0.0031027962505576546
3,97,1.000935788330551,-0.005041373480529034,-0.0028345016399529905
3,98,1.0005629236617242,-0.01215572541942917,0.003596995815727398
3,99,0.9994127787993144,-0.01689907975669149,0.0059434572269996214
3,100,1.000464988065211,-0.0027719247437259765,-0.0006399977776858355
3,101,1.0003803742487507,0.055164642161864,-0.0019330079568923868
4,1,1.0008293501218737,8.033469663035836e-5,-9.634530355214113e-6
4,2,1.000832091361454,0.00019740379650552646,-6.406533392465535e-5
4,3,1.0008315985602816,0.0002564342019837477,-0.00015952613020800438
4,4,1.0008311765145999,0.00030129203575482433,-0.0002862103774042796
4,5,1.000830999615603,0.000352553789254718,-0.0004376166193828192
4,6,1.0008311336616875,0.0004127169853372708,-0.0006117840156053097
4,7,1.0008313020764041,0.0004797481437835871,-0.0008112190239135062
4,8,1.000831479029528,0.0005526825683390604,-0.0010374325898575075
4,9,1.0008317537660119,0.0006296539204964064,-0.0012886220610779631
4,10,1.0008321467453352,0.0007057379885538127,-0.0015604655436274658
4,11,1.000832706204333,0.000773432239655031,-0.0018444656278779478
4,12,1.0008335298585633,0.0008235738487802296,-0.0021276163269861098
4,13,1.0008347587583448,0.0008463533407538719,-0.002392301271754346
4,14,1.0008365787553009,0.0008326777435475546,-0.002617879419506391
4,15,1.0008392078126835,0.0007755140205985375,-0.0027821174800295966
4,16,1.0008428713349775,0.0006707623805195983,-0.0028636297596600275
4,17,1.0008477663820614,0.0005173921198569292,-0.0028431691019509195
4,18,1.000854030234994,0.0003168691246604791,-0.0027048292334898505
4,19,1.0008617208802195,7.217462343711636e-5,-0.0024355068647520365
4,20,1.000870818180605,-0.00021313182583838824,-0.002024342691399693
4,21,1.0008812379049516,-0.000535377939135792,-0.001461297338465831
4,22,1.0008928447635177,-0.0008905250962726703,-0.000736955284572599
4,23,1.0009054415919214,-0.0012732395505157727,0.00015726576028818396
4,24,1.0009187204880585,-0.0016756323012101697,0.0012270460230698207
4,25,1.0009321855086564,-0.0020862553791192464,0.002473006057527749
4,26,1.0009450821379107,-0.0024899493084358324,0.0038880422504000817
4,27,1.0009563866928126,-0.002868841137800339,0.005456359397992316
4,28,1.000964866288769,-0.00320427758359543,0.007153378676257212
4,29,1.0009692104271461,-0.0034791453167511187,0.00894775651052943
4,30,1.0009681889055697,-0.003679964416587574,0.010803748783207348
4,31,1.0009608238201806,-0.0037983172719372985,0.012684638954894994
4,32,1.0009465098432304,-0.0038313804413887165,0.014555261174586399
4,33,1.000925091774859,-0.0037815963497886225,0.016384561138543786
4,34,1.0008968510395946,-0.00365568892399317,0.018146568526425693
4,35,1.0008624629879521,-0.003463348342671309,0.0198212768547731
4,36,1.000822888401393,-0.003215863851422995,0.021394098703950933
4,37,1.0007792873476735,-0.0029249312832118133,0.02285567847178504
4,38,1.000732897839922,-0.002601729225467022,0.02420066806027895
4,39,1.0006849733574839,-0.002256305267519972,0.025427276430866785
4,40,1.0006366922725176,-0.0018972276807375488,0.026535991553506215
4,41,1.0005891400925193,-0.0015314630847083628,0.02752928569483054
4,42,1.0005432540425023,-0.0011644036940232133,0.028410521879197927
4,43,1.000499842551447,-0.0008000034756913744,0.029183919164890056
4,44,1.000459552258575,-0.00044096371572915633,0.029853660624590366
4,45,1.0004229089048473,-8.894963714342219e-5,0.030424081951921724
4,46,1.0003902926773303,0.0002551978735417174,0.030898919201989977
4,47,1.0003619872893894,0.0005912535027323669,0.03128164851180667
4,48,1.000338154597812,0.0009194221811181617,0.031574804269666225
4,49,1.0003188840846975,0.0012401623517487598,0.03178040708465876
4,50,1.0003041630389482,0.0015540328167019792,0.03189930229254111
4,51,1.0002939231007997,0.0018615401908178668,0.031931636719957045
4,52,1.0002880061786605,0.0021630052222485424,0.03187619731395677
4,53,1.000286207659749,0.002458417815962214,0.03173092588150508
4,54,1.000288240927596,0.002747311161178941,0.031492279744775684
4,55,1.0002937788163218,0.0030286156795754442,0.031155808079411308
4,56,1.0003024216663403,0.003300546296137787,0.03071561816391836
4,57,1.0003137397921116,0.0035604705489632486,0.030165073526870718
4,58,1.0003272512083456,0.003804847315165818,0.029496528895609095
4,59,1.0003424673324024,0.0040291632217314,0.028702224021396522
4,60,1.000358885200673,0.004228003683578024,0.027774517432367845
4,61,1.000376034111033,0.004395150922437336,0.026706979037248387
4,62,1.0003934812511692,0.004523891891874811,0.025495336286893763
4,63,1.0004108676701093,0.004607369143499819,0.02413852891632841
4,64,1.0004279165231371,0.0046391790445430925,0.022640404657804574
4,65,1.0004444380814412,0.0046139624045107705,0.02101007554482588
4,66,1.0004603286014109,0.004528181049711244,0.019264084757891896
4,67,1.0004755286136717,0.00438072518787866,0.017424993987302996
4,68,1.0004900156176615,0.004173521428994813,0.015523558617946267
4,69,1.0005037315784802,0.003911746923302978,0.013594520233502258
4,70,1.0005166066097069,0.0036038540739335378,0.011678563814114536
4,71,1.000528483781158,0.003261076479896316,0.009815179597975747
4,72,1.0005391983993788,0.0028967213784735443,0.008045071159101816
4,73,1.0005485270439531,0.0025249238065020965,0.006401220506390501
4,74,1.0005563442981518,0.0021593314553807618,0.004912618845192685
4,75,1.0005625788654229,0.0018119668745187616,0.0035955705193094645
4,76,1.0005672712764948,0.001492781885085434,0.002460862829540246
4,77,1.0005704096977461,0.0012077279721332877,0.0015068609030419958
4,78,1.0005723001216655,0.0009549962146035161,0.0007261238108321225
4,79,1.0005735953477377,0.0007252779081222623,0.0001004060532461772
4,80,1.0005748766910538,0.0005130396439327607,-0.00038478247113754517
4,81,1.0005758666811317,0.0003297507317116919,-0.0007410827580179318
4,82,1.0005759115936674,0.0002050057753654467,-0.000978777921097459
4,83,1.000574887904087,0.0001720750803431144,-0.0011279883399565851
4,84,1.000573398933939,0.00025061088674515844,-0.0012400587011456503
4,85,1.0005724328486363,0.0004406134129184677,-0.0013838389335215414
4,86,1.0005726164957107,0.0007147383324798227,-0.0016180639317349102
4,87,1.0005730300126547,0.0010157449170419548,-0.0019732747453282597
4,88,1.0005742166043645,0.0012646493812642418,-0.002434590104693915
4,89,1.0005741655792217,0.0013707715516750323,-0.0029262811460993715
4,90,1.0005756726454358,0.0012615760855711603,-0.0033610992241096685
4,91,1.0005769852579744,0.0008525508751430554,-0.003581746209730161
4,92,1.000570161805415,0.0002071728639647982,-0.003569236610780077
4,93,1.000610221097905,-0.0006133679354220672,-0.003439860189853912
4,94,1.0005873632866082,-0.0020083329324391917,-0.002622146109118792
4,95,1.0005469477227409,-0.003127855297824366,-0.0021678328919071065
4,96,1.0008716711735872,-0.004214500587121887,-0.0018711688840789891
4,97,1.0004725099744214,-0.009424767934391662,0.002681156531519588
4,98,0.9999523539046352,-0.014029560411832532,0.0031566766095589005
4,99,1.0007795862447435,-0.010537373149065122,-0.0020570943899632225
4,100,1.0011604692364342,-0.0015650647714685118,-0.00249925323905973
4,101,0.9996694578323468,0.0520396951337911,-0.000554062446744559
5,1,1.000828710081025,0.00010984105538516134,-1.0537408458301517e-5
5,2,1.000831599265899,0.00027786791728812935,-7.058417427066809e-5
5,3,1.0008310653486525,0.000373160565921874,-0.0001758548686612238
5,4,1.0008308440664326,0.00044671855221046824,-0.0003139298113865197
5,5,1.000830668974436,0.0005212331883696138,-0.0004792231420176665
5,6,1.0008306184965114,0.0006020874678278556,-0.0006672174009528958
5,7,1.000830810064691,0.0006899688382823327,-0.0008745694510737878
5,8,1.0008310598506032,0.0007811328669430878,-0.001099882155554491
5,9,1.0008313517201686,0.0008690915698068872,-0.0013380362589136086
5,10,1.0008317724669893,0.0009444102161311988,-0.0015793161450627527
5,11,1.0008323591916977,0.0009943460203458146,-0.0018096434823843802
5,12,1.0008331771709986,0.0010044983065739459,-0.002011427364462374
5,13,1.0008343395160346,0.0009610675431341894,-0.0021640778628387114
5,14,1.0008359961616895,0.0008529656201569112,-0.002246700102758624
5,15,1.000838323102139,0.0006733723464045721,-0.002239710950344895
5,16,1.0008415016903418,0.0004201759255873708,-0.0021269654548325247
5,17,1.000845691950051,9.514040016954376e-5,-0.001895508554212268
5,18,1.0008510199027036,-0.0002977913685827827,-0.0015350666314045839
5,19,1.0008575839666136,-0.0007542591277299735,-0.0010355026858459909
5,20,1.000865480415678,-0.0012704412676591964,-0.00038541833181990527
5,21,1.0008748175627886,-0.00184265655027073,0.0004291431708142444
5,22,1.0008856876690795,-0.002465610558815985,0.0014228739128650271
5,23,1.0008980746441583,-0.0031299367834983142,0.0026083990824003443
5,24,1.0009117121542126,-0.003820116143184718,0.003991208837069018
5,25,1.0009259606726213,-0.004513896991992779,0.005566145266091142
5,26,1.0009397608762831,-0.005183738354952743,0.007314695421835887
5,27,1.0009517102753778,-0.005799953579681023,0.009206103009005904
5,28,1.0009602160060032,-0.006334579815906605,0.011199670178194213
5,29,1.0009637224725603,-0.00676494600985513,0.013249801444016107
5,30,1.0009609136667283,-0.007076125340313777,0.015310143598577752
5,31,1.0009509041474436,-0.007261917195906032,0.017338447150577394
5,32,1.0009333031694125,-0.007324375284067445,0.019298744177643656
5,33,1.0009082467445807,-0.007272294095465479,0.021163528275503652
5,34,1.0008762965197242,-0.007119141810012472,0.02291309959148239
5,35,1.0008383761136472,-0.006880958498911014,0.02453563222544157
5,36,1.0007956067308226,-0.006574513169671405,0.02602504861633936
5,37,1.0007492507383056,-0.006215921457071955,0.027380526315383194