TITLE="CMs_NON_Orthogonal Re = 10000.0"
VARIABLES = X,Y,Rho,U,V
ZONE
I = 101	J = 101
F=POINT
1,1,1.000759896321217,2.3404565946731893e-6,-2.874186124359217e-6
1,2,1.0007610018015851,6.004836751034646e-6,-1.843477446189001e-5
1,3,1.000760936701018,6.3829790399846805e-6,-3.839590273255718e-5
1,4,1.0007612476995205,7.474554042116925e-6,-6.142031896554905e-5
1,5,1.0007615813389197,8.734789632927833e-6,-8.904728484493848e-5
1,6,1.0007619314298497,9.97427771431878e-6,-0.000122250585867506
1,7,1.000762334520335,1.1114270256944425e-5,-0.00016185805388466184
1,8,1.0007627998412145,1.1997217145812088e-5,-0.0002090819114741935
1,9,1.000763312916591,1.2352571273505e-5,-0.0002650302782346114
1,10,1.0007638545638047,1.179868736917041e-5,-0.0003309759212877965
1,11,1.0007643984498742,9.838862930022677e-6,-0.0004078339077312676
1,12,1.0007649187137744,5.852093549165733e-6,-0.0004963343448328707
1,13,1.0007653968976078,-9.043074015421641e-7,-0.0005964055902614718
1,14,1.0007658345618249,-1.1274274257055055e-5,-0.0007072397319120732
1,15,1.00076626936786,-2.6168703205667054e-5,-0.0008266708062373679
1,16,1.000766796087198,-4.6491512437974635e-5,-0.0009512651660402009
1,17,1.0007675832400116,-7.305603707443833e-5,-0.0010759088805358797
1,18,1.0007688799860128,-0.00010648121376519024,-0.0011941384316638804
1,19,1.0007710019323586,-0.00014711707382808844,-0.0012981008348379134
1,20,1.0007742971104785,-0.00019498549912547238,-0.0013791470971498577
1,21,1.0007790918038988,-0.0002497729624185647,-0.001428052818808972
1,22,1.0007856295400048,-0.0003108403660955721,-0.0014356676627762057
1,23,1.0007940103000021,-0.00037726357006604355,-0.0013931780940119446
1,24,1.0008041427778784,-0.00044786486455825205,-0.0012926863872182886
1,25,1.0008157103417483,-0.0005212507071579647,-0.0011274978063865364
1,26,1.000828155556022,-0.0005958391027881579,-0.0008927114186523488
1,27,1.0008406829786596,-0.0006699042660540128,-0.0005855890203637445
1,28,1.0008522890216058,-0.0007416333026419338,-0.000206126159890009
1,29,1.0008618199954147,-0.0008092125520147587,0.00024268472335874165
1,30,1.0008680590260384,-0.0008709315445878081,0.0007545917225784929
1,31,1.0008698340891293,-0.0009253099659329753,0.0013202673734744878
1,32,1.000866137734835,-0.0009712206032242265,0.0019276428751541866
1,33,1.0008562390715445,-0.0010079810211957297,0.0025626983307019163
1,34,1.0008397687394945,-0.001035376987202055,0.003210294305263576
1,35,1.0008167606718927,-0.0010536258651294467,0.0038551880826122585
1,36,1.0007876455059546,-0.0010632930930645052,0.00448283070854619
1,37,1.000753199571546,-0.0010651915377879815,0.005080121077393729
1,38,1.0007144623071782,-0.0010602761870023767,0.005635814459746539
1,39,1.0006726383075644,-0.0010495537387051072,0.006140828331516561
1,40,1.0006290000467304,-0.0010340084038014008,0.0065882314179167185
1,41,1.0005848028547693,-0.0010145522173471413,0.006973194887525713
1,42,1.0005412191889458,-0.0009919928161305402,0.007292728578310272
1,43,1.0004992934243402,-0.000967020944569609,0.007545470399098864
1,44,1.0004599165713397,-0.0009402081063902581,0.007731352524026571
1,45,1.000423815909279,-0.0009120157143714827,0.007851379891991075
1,46,1.0003915574631255,-0.0008828070346480402,0.00790734046398441
1,47,1.0003635541730993,-0.0008528644757894622,0.007901646532996602
1,48,1.0003400805035123,-0.0008224050454148468,0.007837134799060154
1,49,1.0003212851433203,-0.0007915981091605094,0.007716985787330443
1,50,1.0003072075717785,-0.0007605788923228531,0.007544619191890601
1,51,1.0002977874660766,-0.0007294637291545201,0.007323674272342575
1,52,1.0002928794065133,-0.0006983590759094004,0.00705799057563309
1,53,1.0002922563072958,-0.0006673739235972568,0.006751614463111088
1,54,1.000295623081921,-0.0006366221012495502,0.006408855134448521
1,55,1.0003026144808536,-0.000606233257792014,0.006034265810172533
1,56,1.0003128114074964,-0.0005763443117288412,0.0056327754167040806
1,57,1.0003257349180876,-0.0005471132181104065,0.005209566027790845
1,58,1.0003408703491166,-0.0005186912282304763,0.004770307669334515
1,59,1.0003576591355872,-0.0004912503592673174,0.004320805572307693
1,60,1.0003755358687085,-0.0004649203625961623,0.0038674302004931636
1,61,1.0003939179311694,-0.00043985531845074555,0.0034163221159865453
1,62,1.0004122580931594,-0.0004161053674585816,0.002974252390422341
1,63,1.0004300286540557,-0.00039377159620170135,0.0025470178191142777
1,64,1.0004467881371941,-0.00037276159692994264,0.002141237635824357
1,65,1.000462152333848,-0.00035310942518109736,0.0017613139845901796
1,66,1.0004758650052465,-0.0003345526900387569,0.0014130703779081642
1,67,1.000487751472063,-0.0003170654999783087,0.0010983458975724458
1,68,1.000497787673451,-0.0003002638794897999,0.0008216396106928878
1,69,1.0005060181666976,-0.00028412130905594243,0.000581455378224689
1,70,1.0005125961772727,-0.00026825443801668916,0.0003808364506199788
1,71,1.0005177365999594,-0.0002526006749953772,0.000214956366323979
1,72,1.00052177037565,-0.00023693323184524354,8.549417738026559e-5
1,73,1.0005249295566805,-0.00022147578905931667,-1.4594561738718573e-5
1,74,1.0005273172708116,-0.00020614597466126608,-8.366427891831708e-5
1,75,1.0005291087397432,-0.00019073437091747444,-0.00013005562687512203
1,76,1.0005307406081907,-0.00017494936798633922,-0.00015333680653907298
1,77,1.000532457535926,-0.00015919708227523095,-0.00016334154133461535
1,78,1.0005339981536476,-0.0001440519251343992,-0.00015808908352269623
1,79,1.0005348988784928,-0.00012989400692505905,-0.00014500616849348657
1,80,1.0005351035022616,-0.00011635987029768714,-0.00012036888409501529
1,81,1.000534946902015,-0.00010297924286586112,-9.333032588488645e-5
1,82,1.0005348676942658,-8.92158063976861e-5,-6.249947827737342e-5
1,83,1.0005350380030003,-7.488928875772308e-5,-3.95255187474279e-5
1,84,1.0005354322323161,-5.9764040243897284e-5,-2.3281160219562365e-5
1,85,1.000535884155086,-4.422767635799511e-5,-2.55156125999327e-5
1,86,1.000536024647282,-2.843499257994142e-5,-4.325245171232034e-5
1,87,1.000535829801347,-1.426672548244347e-5,-8.592286978543535e-5
1,88,1.0005348456000793,-2.7566728722817965e-6,-0.00014350919691581034
1,89,1.0005336130920623,4.743715419356681e-6,-0.00021901308044729807
1,90,1.000532170530353,4.806775628295883e-6,-0.00029151959496940936
1,91,1.0005307541472108,1.9736064630079993e-6,-0.00035571996022943806
1,92,1.0005392921440315,-2.6465262799788605e-5,-0.00036667722082883285
1,93,1.0005425652661957,-8.518783027770588e-5,-0.0002502563018355496
1,94,1.0005448269734223,-0.00017034671525833567,8.550441806702445e-5
1,95,1.0005444763325744,-0.0002687120793561636,0.0007080496176982274
1,96,1.0006084423156565,-0.00025417716114391946,0.0014866693990159784
1,97,1.0008017139711856,-0.0010348966604086843,0.0032271868551672672
1,98,1.00010829233647,-0.0011040908520820287,0.0065039035231545875
1,99,1.0005821364250362,0.0005513874291439931,0.007670574454026453
1,100,1.0017577628936447,-0.007672752099279654,0.01643562324304609
1,101,0.996328679171326,0.02653466396419313,0.014005869182810252
2,1,1.0007585981979765,1.8422755121504907e-5,-5.908529758805261e-6
2,2,1.0007596768352227,3.98731227933668e-5,-3.715507967647878e-5
2,3,1.0007590821326187,4.7508552326432013e-5,-8.677688400492511e-5
2,4,1.000758962215676,5.6662167133760005e-5,-0.00014766116978151837
2,5,1.0007587859403526,6.892727652449305e-5,-0.0002215838446498952
2,6,1.0007584930085103,8.336437321244779e-5,-0.0003116138365745649
2,7,1.0007581468904911,0.0001005112601665955,-0.00042011431360107303
2,8,1.000757717214259,0.00012091890592302552,-0.0005501446620337754
2,9,1.0007571660466439,0.00014484415232006017,-0.0007046473039300472
2,10,1.0007564608564294,0.000172305346278822,-0.0008863343997367795
2,11,1.0007555859825432,0.00020296963502937265,-0.0010968262188976894
2,12,1.0007545536727076,0.00023602728786195425,-0.001336400520726383
2,13,1.0007534231273951,0.0002700960307255044,-0.0016029509073250763
2,14,1.0007523177576205,0.0003031931446579589,-0.001891640736168234
2,15,1.0007514438168639,0.0003328106899036571,-0.0021940241877353673
2,16,1.0007510992156812,0.0003561208780627717,-0.0024981221219965224
2,17,1.0007516709637707,0.0003702879056810895,-0.0027883185692342267
2,18,1.0007536078549208,0.00037280429518789,-0.0030463261145852513
2,19,1.0007573754632029,0.0003617659763885705,-0.0032519507527785096
2,20,1.0007633931669762,0.0003360176197247499,-0.0033845455498879387
2,21,1.000771972596634,0.0002951642101660214,-0.0034238907339644263
2,22,1.0007832617828722,0.00023949826409639128,-0.003351329410636498
2,23,1.0007972086166697,0.00016993631570692169,-0.0031502350884331258
2,24,1.0008135351887588,8.803434174090588e-5,-0.0028067785215910193
2,25,1.0008317253036023,-3.902102892139639e-6,-0.002310345767781178
2,26,1.0008510161059685,-0.00010267734691600736,-0.0016544481124178341
2,27,1.000870406858704,-0.00020412985678108057,-0.0008373967443085485
2,28,1.000888685131598,-0.0003032120285212599,0.00013674065326015647
2,29,1.0009044860905654,-0.0003942724516347988,0.0012577313531000394
2,30,1.000916380916268,-0.00047153911911174395,0.0025089553793647703
2,31,1.0009230016745736,-0.0005297277750625297,0.0038680671479908663
2,32,1.00092317640281,-0.0005646438000738055,0.005308024343658839
2,33,1.0009160608161722,-0.0005736342828807572,0.006798836862194749
2,34,1.0009012283381455,-0.0005557981755316561,0.008309307410927563
2,35,1.0008787150213576,-0.000511934815128632,0.009808941768322307
2,36,1.0008489991979095,-0.00044427802852499583,0.011269364656435684
2,37,1.0008129405574924,-0.0003560987276456029,0.012665525355740124
2,38,1.0007716773085924,-0.00025126759977381867,0.013976249574609304
2,39,1.0007265208520568,-0.00013385133790990643,0.015184560954566377
2,40,1.0006788439746441,-7.789090615423977e-6,0.01627748547139264
2,41,1.0006299973654744,0.000123334100722098,0.01724578936171807
2,42,1.000581235626931,0.00025641873685600987,0.018083418264097033
2,43,1.0005336801214453,0.0003889037774980789,0.018787021546057915
2,44,1.0004882877274572,0.0005187583828039703,0.01935535046034162
2,45,1.000445851873737,0.0006444347644953582,0.019788805732856168
2,46,1.000406998239761,0.0007647946649535666,0.02008897279736363
2,47,1.0003722063632938,0.0008790277078255783,0.020258284405917436
2,48,1.0003418148807084,0.000986563433693792,0.020299762409675244
2,49,1.00031604995693,0.0010869927017085625,0.02021679406591855
2,50,1.0002950284625112,0.0011799892275981695,0.020013101925990547
2,51,1.0002787864937621,0.0012652503237410768,0.019692584928498902
2,52,1.0002672745804022,0.0013424359888522391,0.01925953361789011
2,53,1.0002603851992362,0.001411136244424251,0.01871845860254533
2,54,1.0002579374033882,0.0014708306480333236,0.01807458549376753
2,55,1.0002597059748792,0.0015208893088074495,0.01733355920218681
2,56,1.0002653941029234,0.0015605563536588293,0.016502276154251736
2,57,1.0002746695934777,0.001588994663537307,0.015588296012725135
2,58,1.0002871243358242,0.0016052973342209245,0.014601091053802164
2,59,1.000302325620059,0.0016085855970056108,0.013550910592095565
2,60,1.0003197607043661,0.0015980468717507097,0.012450553458443488
2,61,1.0003389136800154,0.001573083532063226,0.011313325360283306
2,62,1.0003591924201307,0.0015333602967623709,0.010155491881957182
2,63,1.000380041982829,0.0014789780738637256,0.008992880158548825
2,64,1.000400848905739,0.0014104915699792372,0.00784428250349666
2,65,1.0004210984316932,0.001329043446123066,0.006726236996389727
2,66,1.0004402475340863,0.0012363104678089958,0.005657846976388614
2,67,1.0004579230349833,0.0011345498531978276,0.004653376742697782
2,68,1.000473753676297,0.0010264033735944739,0.0037291395967417695
2,69,1.0004875985515003,0.0009147754712549947,0.00289381888693868
2,70,1.0004993213774418,0.0008026663425960404,0.002158087085100642
2,71,1.0005090197414646,0.0006931117488263705,0.0015227961963255809
2,72,1.0005167966650286,0.0005885907463150375,0.0009915068732665351
2,73,1.0005230078849554,0.0004905657062726957,0.0005571660591003919
2,74,1.0005278070056391,0.00040019825335306416,0.00021791569201002286
2,75,1.000531331749762,0.0003197855431684568,-3.858946772722792e-5
2,76,1.000533716498926,0.00025180186197304975,-0.00021972098360988215
2,77,1.00053555702117,0.000196050818980082,-0.00034508265048835017
2,78,1.0005371271433954,0.00014929434692518125,-0.0004244668215118104
2,79,1.0005382370221736,0.00010888094483754834,-0.0004730881301094866
2,80,1.0005382727646532,7.582357662628145e-5,-0.0004931990777106072
2,81,1.0005371756931176,5.376139621551906e-5,-0.0004995528952140837
2,82,1.0005352233139644,4.6291596835446104e-5,-0.0005022243511201512
2,83,1.0005330442771199,5.524267750637451e-5,-0.0005284903100733064
2,84,1.0005306988973945,8.035108751989543e-5,-0.0005969320784446431
2,85,1.0005281708643181,0.00012008621105498587,-0.0007373908042722032
2,86,1.0005249369506313,0.00016947150161750375,-0.0009613649261923127
2,87,1.0005203480234424,0.00022111223716132504,-0.001282782957671764
2,88,1.0005148128750554,0.0002648175259723107,-0.0016894312477093538
2,89,1.000507960265155,0.00029091506057692134,-0.0021681765846753263
2,90,1.0005022137259678,0.00029158384511170413,-0.0026884984732456116
2,91,1.0005002172327877,0.00023450263939595644,-0.0031983527089699047
2,92,1.0005032843950001,8.029746809390831e-5,-0.0036114971556246087
2,93,1.0005284357616344,-0.000280542825190725,-0.0037904864140068306
2,94,1.000539764636002,-0.0007812832382158549,-0.00352106428881629
2,95,1.0006046364274526,-0.001195364342679912,-0.0029018701066983745
2,96,1.000677350270042,-0.0024249091629725546,-0.0010826133189494748
2,97,1.0005853286747675,-0.003990365150510003,0.0015256351500611927
2,98,1.0013517448255882,-0.004810270267635703,0.0037586360626823425
2,99,1.0002497830543324,-0.010940214424806081,0.016165340010839083
2,100,0.9994357319173508,-0.01219153202655007,0.021817110921678026
2,101,1.0035920244933196,0.0515540430287302,0.0056316603966706435
3,1,1.0007586321656772,3.445921963281517e-5,-5.759282147978053e-6
3,2,1.0007603063604986,8.594291219085302e-5,-4.068008847255248e-5
3,3,1.00075979717098,0.00011327909920713513,-0.00010549275581559881
3,4,1.0007593796839862,0.00013783949817219106,-0.00019380981003578606
3,5,1.0007591246779024,0.0001673211849456813,-0.000302276954418312
3,6,1.0007588173769366,0.0002017467818391311,-0.00043342945228964523
3,7,1.0007584171545432,0.0002411833477174642,-0.000590951169238283
3,8,1.0007579334010066,0.0002859081528890819,-0.0007782343101648652
3,9,1.000757318688824,0.00033510925113945775,-0.0009979137099930381
3,10,1.0007565464775894,0.0003868514510404166,-0.0012513639309318868
3,11,1.0007556210534043,0.000438032692115833,-0.0015373784549142177
3,12,1.0007545843620873,0.00048420108180889676,-0.0018517939228668422
3,13,1.000753531359306,0.0005195379902384914,-0.0021863392683137742
3,14,1.0007526225007584,0.000537074222572196,-0.002528561804811033
3,15,1.0007520898121394,0.0005292246529371469,-0.002861426518407569
3,16,1.0007522324759275,0.000488630458357929,-0.003164320960926881
3,17,1.0007533968569686,0.0004091367592897411,-0.003413971685608118
3,18,1.0007559422845906,0.00028662392423707924,-0.003586519116953467
3,19,1.0007601950452563,0.000119442361526715,-0.003658952742618395
3,20,1.0007664046058988,-9.163466446985262e-5,-0.0036108322615299544
3,21,1.000774709070048,-0.00034382531072273684,-0.0034247433894128237
3,22,1.000785118496996,-0.0006328508492073904,-0.003086758700091886
3,23,1.0007975076284412,-0.0009532662805698452,-0.002586004904238861
3,24,1.0008116094122492,-0.0012984632345109793,-0.0019148746591204516
3,25,1.0008269975831725,-0.001660416320770491,-0.0010690776248804901
3,26,1.0008430609714685,-0.0020293982831326787,-4.8648336029715425e-5
3,27,1.0008589796193557,-0.0023939278740674422,0.0011412965065680128
3,28,1.0008737184465633,-0.0027411374343272146,0.0024894127146780445
3,29,1.0008860617764268,-0.003057624433183816,0.003977965952516898
3,30,1.0008946968673778,-0.003330672801446769,0.005582992950125695
3,31,1.0008983476707314,-0.0035495808975438497,0.0072757652906707635
3,32,1.0008959234200157,-0.003706770206769185,0.00902443233445984
3,33,1.0008866613622054,-0.0037984301126938913,0.01079640193415998
3,34,1.0008702168403059,-0.0038245933563319204,0.01256016526269069
3,35,1.0008467030719048,-0.0037887015082277717,0.014287179231848813
3,36,1.000816656238476,-0.0036968162246593115,0.01595273228723605
3,37,1.000780967082635,-0.003556681921938246,0.017536700330434037
3,38,1.000740768232064,-0.0033768108940495337,0.01902334594332515
3,39,1.0006973336857388,-0.0031657171741652224,0.020401233479484544
3,40,1.000651966766609,-0.0029313486127786597,0.021662444817377335
3,41,1.0006059299024315,-0.0026807295470562694,0.0228021740433309
3,42,1.000560372538164,-0.0024197803498438803,0.02381781490778676
3,43,1.0005163077448682,-0.002153281735006075,0.024708580616002583
3,44,1.0004745798074748,-0.0018849331957883954,0.025474698784925424
3,45,1.0004358758682899,-0.0016174782571284523,0.02611719124600418
3,46,1.0004007169383409,-0.0013528569840226233,0.0266372445480293
3,47,1.0003694866550834,-0.0010923772697632188,0.027036159275636195
3,48,1.0003424305925799,-0.0008368778313749232,0.02731488854912826
3,49,1.000319689091657,-0.00058689162244798,0.02747411941485016
3,50,1.0003012965309668,-0.00034278716782559077,0.02751396197151862
3,51,1.000287211707482,-0.00010490935753552577,0.027434121194273298
3,52,1.0002773148030588,0.00012630734382231863,0.02723374428566953
3,53,1.000271433248236,0.0003502210414776364,0.026911650186188955
3,54,1.0002693378241858,0.0005658998619445532,0.026466383053997452
3,55,1.000270763873591,0.0007720308888359629,0.025896467789897595
3,56,1.0002754095008954,0.0009668811569192465,0.025200760363995708
3,57,1.0002829517899416,0.0011482513023690479,0.02437867097779174
3,58,1.000293049795113,0.0013135095613094516,0.02343093209939909
3,59,1.0003053536191966,0.0014596232658432536,0.022359652225624534
3,60,1.0003195132910896,0.0015833058084903605,0.021169619207024468
3,61,1.000335176310061,0.0016811587562506215,0.019867897062318635
3,62,1.0003520022012318,0.0017499560277324682,0.01846573074561594
3,63,1.0003696443661685,0.0017868945196356859,0.016977190152223348
3,64,1.0003877705317472,0.001789978131313417,0.015421670718889533
3,65,1.000406030877484,0.0017582880179631678,0.013820915738840365
3,66,1.0004240903112014,0.0016923419877439973,0.012202097992147616
3,67,1.0004415919652263,0.0015942274310158438,0.010592604772681015
3,68,1.0004582023780448,0.0014677052163153484,0.00902388320993458
3,69,1.0004735948881232,0.0013179876705137921,0.007523751238259969
3,70,1.000487509729404,0.001151565483871506,0.006121508095250519
3,71,1.0004997325190397,0.0009757988172171294,0.004838373453234195
3,72,1.0005101236314373,0.0007981521986609036,0.003694653501360975
3,73,1.0005186769839962,0.0006249478457906745,0.0026989373487686136
3,74,1.0005255374633282,0.00046145604478450505,0.0018580015508794722
3,75,1.0005308076408634,0.00031407499368553307,0.001166765005395275
3,76,1.0005344249282064,0.00019095814347477107,0.000619571825997247
3,77,1.0005365607263763,9.697950227248075e-5,0.00019649878867226698
3,78,1.0005377893717635,2.8565022089365613e-5,-0.00012317855494819717
3,79,1.0005385516108243,-2.255280995445976e-5,-0.00036614102971082755
3,80,1.0005385377067721,-5.9030766901892796e-5,-0.0005458924660142193
3,81,1.0005371231665399,-7.305043429860612e-5,-0.0006791279969186489
3,82,1.000534169251982,-5.062243364382178e-5,-0.0007832989411996925
3,83,1.0005302153300875,2.024051365918741e-5,-0.0008972705612224289
3,84,1.0005260084700918,0.00014331187984259957,-0.0010656111466051821
3,85,1.0005218313523778,0.00031161999671667633,-0.001339263401103008
3,86,1.0005173365001605,0.0005063561522438099,-0.0017488570863955148
3,87,1.0005119741593915,0.0006968591044505965,-0.002303425055768399
3,88,1.0005045056721913,0.0008558605706355097,-0.002975559090542794
3,89,1.0004971757476353,0.0009611137302461604,-0.003730187394084905
3,90,1.0004901160137973,0.000979157723947339,-0.004492197316139271
3,91,1.0004860765429102,0.0008719137985107846,-0.0052006137290956204
3,92,1.0004887268701048,0.0005118887066582752,-0.005715441194259955
3,93,1.000481716550786,-0.00012658687444501446,-0.0059624658640792146
3,94,1.0005402700610189,-0.0009927786757217194,-0.006026183307529682
3,95,1.0005505173173026,-0.002511363589015991,-0.005014143224154061
3,96,1.000426273814457,-0.0038643473500973853,-0.0038539877725059955
3,97,1.0008829362516305,-0.0057187275187334085,-0.0032311622071461666
3,98,1.0005075474798766,-0.012793585325297452,0.003450969154778071
3,99,0.9993228360566124,-0.017124320048065626,0.005854816695088865
3,100,1.0003986441854638,-0.0027260640243051575,-0.000641130465356257
3,101,1.0003285430807478,0.055228603698301265,-0.0019197056887275553
4,1,1.000758217275646,5.47033706736058e-5,-7.031480787412368e-6
4,2,1.0007601003993307,0.00014207534067397793,-4.795305987895939e-5
4,3,1.0007598256594679,0.00020065760185640453,-0.00012508387674908662
4,4,1.0007594289163395,0.00025108153799435285,-0.00023399976411056224
4,5,1.0007590124777404,0.00030436731741154523,-0.00036964239721430913
4,6,1.000758728255458,0.00036575894650537954,-0.0005300395111662072
4,7,1.0007584279957824,0.00043658114601948325,-0.0007174266706568023
4,8,1.000758046728945,0.0005162509781953096,-0.0009343188937189483
4,9,1.0007575922065917,0.0006027692886543701,-0.0011803894551094193
4,10,1.0007570549281293,0.0006922194214990647,-0.001452611504714277
4,11,1.0007564589359743,0.000778767856735772,-0.001743842750881999
4,12,1.0007558681310624,0.0008547254330392814,-0.00204279785736824
4,13,1.000755385044901,0.0009107952285605943,-0.0023334379471478075
4,14,1.0007551559430103,0.0009367672571346055,-0.0025959863285178572
4,15,1.0007553662740103,0.0009226539335707607,-0.002807600989438729
4,16,1.0007562309661402,0.0008600917542605003,-0.0029446827931320437
4,17,1.0007579743662542,0.0007436036882090934,-0.00298446808092387
4,18,1.0007608070337282,0.0005712579584025415,-0.002907339480379324
4,19,1.0007649005178927,0.0003444736558123712,-0.0026974084839177736
4,20,1.0007703740484803,6.71129125332796e-5,-0.002342969882961837
4,21,1.000777293220769,-0.00025565689294109904,-0.001835189732726346
4,22,1.000785678821422,-0.0006181338112095598,-0.0011673851725889119
4,23,1.0007955047278905,-0.001014096195734367,-0.00033388930251324517
4,24,1.0008066699950802,-0.001436075141801348,0.0006692784216601215
4,25,1.0008189402781626,-0.0018742940828540904,0.0018435321331268864
4,26,1.0008318693230485,-0.0023158401181878827,0.0031853487597385158
4,27,1.0008447327045313,-0.002744575979327676,0.0046847364600831245
4,28,1.0008565022275313,-0.003142041220745896,0.0063236548750559216
4,29,1.0008659033499991,-0.003489257748090498,0.008076560790174402
4,30,1.0008715394069965,-0.0037689912816526506,0.009911503019744966
4,31,1.0008720802030895,-0.003967883365596248,0.011793089146706796
4,32,1.000866438541177,-0.004077919366405048,0.013685007094023259
4,33,1.000853930261504,-0.004096974731187583,0.01555322621370348
4,34,1.0008343389061425,-0.004028434720162013,0.017367641232777665
4,35,1.0008079363700317,-0.0038801374461880146,0.01910379693858246
4,36,1.0007754027540738,-0.003662951797278465,0.020742834501695964
4,37,1.000737748820267,-0.0033893237774328586,0.02227178193350225
4,38,1.0006961742733351,-0.0030719960926459686,0.0236824035930913
4,39,1.0006519845634272,-0.0027230389647434775,0.024970886803061306
4,40,1.0006064644663395,-0.0023531985773835155,0.026136384662799127
4,41,1.0005608403322441,-0.0019715524340015653,0.027180718878428604
4,42,1.0005161948432748,-0.0015853909733644987,0.02810703213130896
4,43,1.0004734795128059,-0.0012002784729704336,0.028919743740570686
4,44,1.000433462735588,-0.000820211874101587,0.029623416619819896
4,45,1.000396776046559,-0.00044784767039504484,0.03022297847136777
4,46,1.000363877971854,-8.474157770628328e-5,0.030722765994663507
4,47,1.0003351158871716,0.000268403186000586,0.03112694399781378
4,48,1.000310692031803,0.0006115115611983239,0.031438654192318484
4,49,1.0002907288991807,0.0009449220532207472,0.031660558366657814
4,50,1.0002752307364944,0.0012692029629188094,0.03179403101784159
4,51,1.0002641466647584,0.001584974559772291,0.03183977413983868
4,52,1.0002573265027606,0.0018927573610182215,0.03179702232018105
4,53,1.0002545800714602,0.0021928144999272636,0.031664206915330104
4,54,1.0002556297658398,0.002485016781398826,0.03143818310820044
4,55,1.00026016709102,0.0027686911373362246,0.03111495696153874
4,56,1.000267806786789,0.0030424996406893346,0.030689000943452744
4,57,1.0002781431257795,0.0033042999737437177,0.030154096298234966
4,58,1.000290711803224,0.003551065004947287,0.029502877007515946
4,59,1.000305048453442,0.003778797544601964,0.028727864225230302
4,60,1.0003206637775572,0.0039825591656609104,0.027821445546506274
4,61,1.0003371033026056,0.004156524238175676,0.02677713786314307
4,62,1.0003539364447154,0.004294220912252749,0.025590205870476987
4,63,1.0003708080093863,0.004388824293928388,0.02425900541408909
4,64,1.000387432645343,0.004433687161629229,0.02278629028397213
4,65,1.0004036198569066,0.004422900938075861,0.02118011401529323
4,66,1.0004192610113283,0.004352060595314221,0.019455545945801175
4,67,1.0004343078587894,0.00421892288604868,0.017634194222775356
4,68,1.0004487524657761,0.004024105658598324,0.015745764932805262
4,69,1.0004625715965703,0.003771450998830748,0.013825154149417054
4,70,1.0004757298709395,0.0034682311397483383,0.011913365169616243
4,71,1.0004881059841086,0.0031248500914758132,0.010051959144806975
4,72,1.0004995434050723,0.002754205595213114,0.008283717098633528
4,73,1.0005098214856867,0.0023702680976714617,0.006645144287070644
4,74,1.000518839893678,0.0019869463251263636,0.005167465159450027
4,75,1.0005265343125913,0.001618603266478497,0.0038703378260883116
4,76,1.0005327649134563,0.0012818718072585547,0.002766641583253294
4,77,1.0005371848495281,0.0009927637908405567,0.0018563157843606458
4,78,1.0005398733025568,0.0007576879442057862,0.001126760095246153
4,79,1.000541429855692,0.0005690400471213503,0.0005505458714753357
4,80,1.0005423581960076,0.0004166641830683731,0.00010071136348086953
4,81,1.00054224337686,0.0003051132698872916,-0.00024294625435155323
4,82,1.000540444209844,0.0002592015731752022,-0.000497949668520649
4,83,1.000537086211325,0.0003104122091499213,-0.0006986966229621546
4,84,1.000533118710988,0.000474955282761106,-0.0009016594577324101
4,85,1.0005296391070835,0.0007399697015967119,-0.001174350840303545
4,86,1.000526828136624,0.0010569893273690797,-0.0015642815676940385
4,87,1.0005233327663017,0.0013576613338412331,-0.0020776368260140964
4,88,1.0005196010329787,0.0015804398209357073,-0.002675299707177816
4,89,1.0005143026036132,0.001678234799069927,-0.0032724216142398853
4,90,1.0005115004644478,0.0016148650938620248,-0.0037951939967857656
4,91,1.0005086990118905,0.0012936536496495044,-0.004100823233387164
4,92,1.0004991570392565,0.0007135383412229993,-0.004181773743882011
4,93,1.0005362755385223,-0.00015796300909651697,-0.004113638181932436
4,94,1.000509448924593,-0.0017715723660333322,-0.0032944622622016776
4,95,1.000473559448718,-0.003264964280851926,-0.002781083181208222
4,96,1.0007973938157828,-0.0048357465082281776,-0.002304989048765331
4,97,1.0003966245937042,-0.010302382729693778,0.0023488822531583116
4,98,0.9998648965623632,-0.014721446931335936,0.0028562101832900907
4,99,1.0007078005730705,-0.010924675294566257,-0.0021470259221682236
4,100,1.0011019593612325,-0.0015654006788429012,-0.0024663138034141017
4,101,0.9995965016023254,0.05212467777915191,-0.0005519408636314207
5,1,1.0007578776665231,7.63703551727118e-5,-7.956393496059494e-6
5,2,1.0007599452186249,0.0002054462585712102,-5.464513015908446e-5
5,3,1.0007596352330363,0.0002995461768624251,-0.00014229847969311293
5,4,1.000759377737785,0.00038024895069068717,-0.0002639761337371626
5,5,1.000759006192937,0.00045873351721378906,-0.00041445479450608275
5,6,1.0007586443498058,0.000542976845981539,-0.0005895874608038241
5,7,1.000758403278309,0.0006371118929315658,-0.00078674193176379
5,8,1.000758141816164,0.0007386348540315424,-0.0010051389547070565
5,9,1.0007578025735835,0.0008411883745664149,-0.0012406927119629917
5,10,1.0007574095249376,0.0009360700783140537,-0.001484884353443988
5,11,1.000756976284911,0.001012179775629772,-0.0017242613360230125
5,12,1.000756541892096,0.0010565375656308767,-0.0019415184283217304
5,13,1.0007561750976368,0.0010552888586214668,-0.00211567835495309
5,14,1.0007559720033474,0.0009951178791535694,-0.0022245437973088026
5,15,1.0007560571575247,0.000864990375553345,-0.0022461099273152043
5,16,1.0007565813643482,0.0006577660372690667,-0.002161416424528492
5,17,1.0007577110540005,0.00037108446698682533,-0.001955304192094417
5,18,1.0007596199556241,7.097782780140589e-6,-0.0016173495829520817
5,19,1.0007624829483366,-0.00042888319709713047,-0.0011400348651280758
5,20,1.0007664853146292,-0.0009301702719601254,-0.0005173631468791166
5,21,1.000771833634491,-0.0014899699544295324,0.0002578358470807416
5,22,1.0007787508462669,-0.0021014115924738817,0.001194093077153351
5,23,1.0007874281543656,-0.002756253098194401,0.002300983716904077
5,24,1.0007979253726225,-0.0034428582893177694,0.003585643450710578
5,25,1.0008100446032653,-0.004144444210951513,0.005049651233353212
5,26,1.0008232066501004,-0.00483851371726317,0.006684778767300302
5,27,1.0008364042450792,-0.005498008076260401,0.008471686103068777
5,28,1.0008482419452727,-0.006094045587162619,0.010379470366185977
5,29,1.0008571059654134,-0.00659955379355578,0.01236899129302492
5,30,1.0008613707293346,-0.0069927653858339045,0.014396181974426863
5,31,1.0008596552885989,-0.007259726354215908,0.01641740120040928
5,32,1.000850981875042,-0.007395311684888977,0.018392524459902998
5,33,1.0008349120236657,-0.007402791304101168,0.020288553642585968
5,34,1.000811517989469,-0.007292277667104263,0.022079968394056352
5,35,1.0007813678516093,-0.007078627035494636,0.023749765779509886
5,36,1.000745364313767,-0.006779245233977247,0.02528761670996402
5,37,1.000704683546599,-0.0064121928730237095,0.026689682993522645