TITLE="CMs_NON_Orthogonal Re = 10000.0"
VARIABLES = X,Y,Rho,U,V
ZONE
I = 101	J = 101
F=POINT
1,1,1.000969532931455,1.6310707614759108e-6,-2.7428608361276824e-6
1,2,1.0009705940429798,5.174585289056154e-6,-1.7716251124066736e-5
1,3,1.0009705212911213,5.448046197671676e-6,-3.717950269182786e-5
1,4,1.0009707673714443,6.146996394327948e-6,-5.9678978572164436e-5
1,5,1.0009710276918244,6.783012325969943e-6,-8.667529766907792e-5
1,6,1.0009712903289165,7.0288844705868e-6,-0.00011922509641537046
1,7,1.0009715787553846,6.54272624433855e-6,-0.00015816970957148671
1,8,1.0009719060955409,4.853138660351463e-6,-0.000204622990830235
1,9,1.0009722651195752,1.2652463635979819e-6,-0.00025966066931513515
1,10,1.0009726397983445,-5.171831514278343e-6,-0.00032447928762442023
1,11,1.000973004420308,-1.5670727534002136e-5,-0.0003999405313042408
1,12,1.000973333696884,-3.1700699471781865e-5,-0.00048663511504866565
1,13,1.000973612522676,-5.4962210894500194e-5,-0.0005843922243598091
1,14,1.000973851006386,-8.733026529175184e-5,-0.0006922965103614452
1,15,1.0009741008136703,-0.00013077256139896134,-0.0008082432805896027
1,16,1.0009744724064797,-0.00018722391424941202,-0.0009290065461739959
1,17,1.0009751453204407,-0.00025845027222921846,-0.0010499680689953943
1,18,1.0009763685607775,-0.0003458996314988419,-0.0011653460134384299
1,19,1.0009784447433132,-0.0004505824145918795,-0.0012681601375457287
1,20,1.0009817011608853,-0.0005729678927515636,-0.001350601910652342
1,21,1.0009864476858081,-0.0007129229211654054,-0.0014041606975328737
1,22,1.0009929291392088,-0.0008696681950242898,-0.0014200498962196532
1,23,1.0010012737498823,-0.0010417713438442145,-0.0013894391620665582
1,24,1.00101144501503,-0.001227158345114771,-0.0013039516315153635
1,25,1.0010231983171505,-0.0014231651583648094,-0.0011560576774161508
1,26,1.0010360495093664,-0.0016266194901850574,-0.0009397103934730858
1,27,1.001049259491096,-0.001833969662561738,-0.0006508866999579615
1,28,1.0010618468892984,-0.0020414440472944274,-0.00028822994019157713
1,29,1.0010726362668703,-0.0022452400458905716,0.0001465350220374605
1,30,1.0010803451251744,-0.002441717596069258,0.0006482908902884664
1,31,1.0010836986488663,-0.0026276024133865183,0.0012085698474564217
1,32,1.0010815587617512,-0.002800189800154785,0.0018158327784149196
1,33,1.0010730478662246,-0.002957518990219866,0.0024561762757260154
1,34,1.001057649162118,-0.0030984405202480404,0.0031142517296402794
1,35,1.0010352646414478,-0.0032225626698281044,0.0037743194055255597
1,36,1.0010062233734578,-0.0033301080292093594,0.004421166200072482
1,37,1.0009712399652868,-0.0034217417219130544,0.005040878855605084
1,38,1.000931336654189,-0.003498400968437295,0.005621352822957264
1,39,1.0008877431500962,-0.0035611530970398497,0.006152598309184609
1,40,1.0008417943541577,-0.003611081564739863,0.006626818377818128
1,41,1.000794835869283,-0.003649208154884348,0.007038339443385678
1,42,1.0007481501419633,-0.0036764405747211574,0.007383423902052696
1,43,1.0007029007137445,-0.0036935479639820133,0.007660015817212029
1,44,1.000660100734929,-0.00370115132336875,0.007867477388058174
1,45,1.0006205938658683,-0.0036997310814963756,0.008006304750996658
1,46,1.0005850542183432,-0.0036896398040491252,0.008077913019240475
1,47,1.0005539876269354,-0.00367112411162393,0.00808439823525235
1,48,1.0005277474351637,-0.003644345303790874,0.008028426385320106
1,49,1.0005065409730876,-0.00360940532971053,0.007913053388152154
1,50,1.0004904508862837,-0.0035663675977245695,0.007741732719457926
1,51,1.0004794376077113,-0.0035152829728885256,0.007518165842319028
1,52,1.0004733628410616,-0.003456206624605244,0.007246430950224316
1,53,1.00047198392048,-0.0033892241177429674,0.006930808875314796
1,54,1.0004749814375657,-0.003314459779993026,0.006576044904246024
1,55,1.0004819442127808,-0.0032321065075260925,0.006187062064163166
1,56,1.0004924065824643,-0.0031424163402294287,0.005769400404592457
1,57,1.0005058234890054,-0.0030457440537899902,0.005328670800879956
1,58,1.000521624826455,-0.002942499707692759,0.004871290857842958
1,59,1.0005391791784848,-0.0028332311396540638,0.004403419661118689
1,60,1.0005578725021371,-0.0027184967022439027,0.003932274363214824
1,61,1.0005770566578327,-0.00259904371068089,0.0034640670529395997
1,62,1.0005961566756298,-0.0024755207553350807,0.0030065297235708985
1,63,1.000614596857855,-0.002348864114100409,0.002564955595228197
1,64,1.0006319353891955,-0.0022197105056706015,0.002147196664336614
1,65,1.0006477597776535,-0.0020891670191841606,0.0017561925611085322
1,66,1.0006618374187832,-0.001957757495053922,0.0013996430357822876
1,67,1.0006739761741745,-0.0018267080198408844,0.0010765552882518316
1,68,1.000684182847519,-0.0016963948075356817,0.0007944508642225394
1,69,1.0006924893970839,-0.0015680701064300921,0.00054735592002985
1,70,1.0006990819322517,-0.001442053977485019,0.00034279519746357974
1,71,1.0007041411699473,-0.0013194199229797816,0.0001699874771995824
1,72,1.000707999154442,-0.001200490764923449,3.647625755819309e-5
1,73,1.000710892442747,-0.00108629364974044,-7.199371266262874e-5
1,74,1.0007130102847643,-0.0009771781444892797,-0.00014706565665871836
1,75,1.000714548188364,-0.0008736432602294491,-0.00020484768957135748
1,76,1.0007159171345332,-0.0007758737512925151,-0.0002366746840333961
1,77,1.0007173006701016,-0.0006847648729252073,-0.00025932661800272906
1,78,1.000718518717433,-0.0006008927922498874,-0.00026117860143280887
1,79,1.000719294773766,-0.0005245402014774193,-0.00025706757875401914
1,80,1.0007197760097641,-0.0004549393699503865,-0.0002339696880859783
1,81,1.0007203245137932,-0.0003913146737539749,-0.00020949543690474518
1,82,1.0007212867817807,-0.0003325037109404464,-0.00017272669533947797
1,83,1.0007226959423947,-0.0002779181534016573,-0.00014436251486220496
1,84,1.0007244761042946,-0.00022677237407327895,-0.00011344194373207988
1,85,1.0007265077928136,-0.00017946596318744226,-0.00010193128218174037
1,86,1.0007285525184495,-0.00013604719769030776,-9.71320697815912e-5
1,87,1.0007306530340323,-9.885779522023353e-5,-0.00012093556115711349
1,88,1.000732292756867,-6.940872730849149e-5,-0.0001533779798178427
1,89,1.000733508148746,-4.947759120395051e-5,-0.00020925180455136103
1,90,1.0007342013597038,-4.2690011009369875e-5,-0.0002532632494615211
1,91,1.0007341782989472,-4.371550917727927e-5,-0.0002870930488510756
1,92,1.0007432977348687,-7.266098723437267e-5,-0.0002517655890879078
1,93,1.0007468710365788,-0.0001317711911945494,-8.506575496460155e-5
1,94,1.000747934271115,-0.0002118857001225627,0.0003013217812139056
1,95,1.000747694053906,-0.0003001718240562951,0.0009533182359281217
1,96,1.0008074290353604,-0.0002711647368458086,0.001723967575010949
1,97,1.0009942757747048,-0.0010291267059863028,0.0034081418182302834
1,98,1.0003076033716656,-0.001092331266480155,0.006593709337076703
1,99,1.0007709892170893,0.0005620893432764862,0.0076566604052749265
1,100,1.0019483335452974,-0.007693511564371896,0.01641348959442827
1,101,0.9965338870902355,0.026523064917787786,0.013993537947334921
2,1,1.0009682728277371,1.8269904201033204e-5,-5.677849211319555e-6
2,2,1.0009693100497303,3.931892746751794e-5,-3.59073339861756e-5
2,3,1.000968731729562,4.733704133973374e-5,-8.451750636488198e-5
2,4,1.0009685470780685,5.662952539096875e-5,-0.00014436957870620114
2,5,1.0009683001642802,6.933383075860349e-5,-0.00021700580472657266
2,6,1.0009679287769062,8.47532182976424e-5,-0.0003056091944499321
2,7,1.0009674764989032,0.00010336954815028514,-0.0004125741805129495
2,8,1.0009669226663163,0.00012600375084194016,-0.0005407277954876554
2,9,1.0009662431953672,0.00015341084436630228,-0.0006928708853117615
2,10,1.0009654132291956,0.00018616391805350812,-0.0008715956011864893
2,11,1.000964422558492,0.000224561253829153,-0.0010784137391245331
2,12,1.0009632876436827,0.00026857550194900136,-0.0013133672562766988
2,13,1.0009620708495768,0.0003178223901526943,-0.001574152303749485
2,14,1.0009608967512729,0.00037157146814564666,-0.001855845048658041
2,15,1.0009599686412718,0.0004288013021092525,-0.002150340465356634
2,16,1.0009595726354457,0.0004882995133278241,-0.002446525551723956
2,17,1.0009600716078526,0.0005487878643421405,-0.00273032409564844
2,18,1.0009618789438082,0.0006090282428767369,-0.0029854311414357886
2,19,1.000965422469674,0.0006678806093798069,-0.0031938266435465237
2,20,1.0009710962486336,0.0007243048185011521,-0.00333670023327703
2,21,1.000979214465685,0.0007773385539679492,-0.0033949857701501434
2,22,1.0009899641514073,0.0008260996949347143,-0.0033501435871202594
2,23,1.0010033665520022,0.0008698687720969464,-0.00318463412560774
2,24,1.0010192391989,0.0009082736857018809,-0.0028827494950154895
2,25,1.0010371659211086,0.0009415566381958452,-0.002431366712977633
2,26,1.0010564696712676,0.0009708454604599943,-0.0018211133545452994
2,27,1.0010762054294906,0.0009983301816319755,-0.0010474015266836191
2,28,1.0010951776736674,0.0010272583382514152,-0.00011155271511400721
2,29,1.0011119992313418,0.0010617178912244707,0.000978575846352417
2,30,1.0011251821777303,0.001106220251246992,0.0022083034614069764
2,31,1.0011332649051827,0.0011651393310492715,0.0035566179585290385
2,32,1.0011349520434005,0.0012421032235683904,0.004997177545519095
2,33,1.0011292568337369,0.0013394769797546208,0.006499986867435582
2,34,1.0011156067399358,0.0014580585311188235,0.008033265081804788
2,35,1.0010939050182552,0.0015970429836995156,0.00956542165353675
2,36,1.0010645248820789,0.001754223105790664,0.01106667996292414
2,37,1.001028258266184,0.0019263458362454619,0.012510356392434915
2,38,1.0009862170078765,0.0021095274856303393,0.013873598389854289
2,39,1.000939726202316,0.002299649784097369,0.015137722282549698
2,40,1.0008902068667132,0.0024926827025431777,0.016288160086528718
2,41,1.0008390850607625,0.0026849148215468024,0.017314148601763963
2,42,1.0007877089129715,0.002873088071687861,0.018208285710010996
2,43,1.0007373041081742,0.003054455049376615,0.01896595296093813
2,44,1.000688934326886,0.0032267723920180935,0.019584837770836017
2,45,1.0006434980633017,0.0033882573315247573,0.020064334664804142
2,46,1.0006017174726838,0.003537514499664304,0.020405243624109465
2,47,1.0005641597391168,0.0036734595303094942,0.020609234374388594
2,48,1.0005312357900737,0.003795231554498688,0.020678822877344485
2,49,1.0005032327447216,0.003902124126267935,0.020616870425275432
2,50,1.0004803089774121,0.003993508006497817,0.02042690078037897
2,51,1.0004625317610183,0.004068788454697334,0.020112534780276952
2,52,1.0004498603885834,0.004127345918526645,0.0196782257772379
2,53,1.0004421898898586,0.004168530117297744,0.019128469841250197
2,54,1.000439316487789,0.004191619641981341,0.01846908720309814
2,55,1.00044099351049,0.004195863424072394,0.017705967303179825
2,56,1.0004468734330292,0.0041804583193910255,0.016847097345309033
2,57,1.0004565867476083,0.00414465085736203,0.015900478083464866
2,58,1.0004696530515684,0.004087728140666495,0.014877196472848722
2,59,1.0004855984157084,0.004009189522429269,0.013787973328909069
2,60,1.0005038251057194,0.003908735835699628,0.012647706721231184
2,61,1.0005237873579838,0.00378650483035232,0.011469899287353987
2,62,1.0005448057763056,0.003643025807164441,0.01027328754783585
2,63,1.000566322977869,0.0034794839248212758,0.00907318630885095
2,64,1.0005876450370013,0.003297596729759135,0.007891093569082975
2,65,1.0006082934636298,0.003099833616823655,0.006741847376349237
2,66,1.000627654880361,0.0028891788100976895,0.005647437579667506
2,67,1.0006454317903561,0.002669254941729304,0.004618886582312549
2,68,1.0006611860581005,0.0024439644368458016,0.0036757033949099114
2,69,1.0006748767568687,0.002217442664689176,0.0028217218245936942
2,70,1.0006862971124766,0.0019936829106455196,0.002071377244970162
2,71,1.0006956566104732,0.0017765932617571044,0.0014193643574843234
2,72,1.000702951640395,0.001569450900049537,0.0008739173872061955
2,73,1.0007086265612872,0.001374620381293997,0.00042085161776228536
2,74,1.000712783630119,0.001193696212272712,6.359255064112067e-5
2,75,1.0007157943129106,0.0010284676945048613,-0.00021789501553931635
2,76,1.0007177877703468,0.0008799905092412418,-0.00042318412381069564
2,77,1.0007194674438018,0.0007468793020478945,-0.00057649529044921
2,78,1.0007209485241795,0.0006258629278510005,-0.0006755518822615888
2,79,1.0007222066909618,0.000515331812956959,-0.000739676482786581
2,80,1.000722688498579,0.0004172575277660306,-0.0007609010876092089
2,81,1.0007226135440104,0.00033540396593227884,-0.0007622950530226908
2,82,1.0007221141376659,0.0002728117832690151,-0.0007455410446738895
2,83,1.0007217467573044,0.00023074593500063855,-0.0007466964021171534
2,84,1.0007212281700513,0.00020882627854514461,-0.0007742395382050916
2,85,1.000720606502464,0.00020667719261307181,-0.0008673035449523377
2,86,1.0007194178371708,0.00022186060455761257,-0.0010302225890389577
2,87,1.0007173509370177,0.0002490053171906638,-0.0012930256727835268
2,88,1.0007147051888046,0.00027667573190888315,-0.0016398907672427506
2,89,1.0007110177130683,0.00028885324266986906,-0.0020691743895198686
2,90,1.000707908346179,0.000270911120536888,-0.002530797745935719
2,91,1.0007084209506936,0.00018797045002500208,-0.0029707286621999413
2,92,1.0007132093584303,7.979803520809733e-6,-0.003282796052264629
2,93,1.000739060768482,-0.0003594818845668155,-0.0033531745459216312
2,94,1.0007494955661926,-0.0008371962412946823,-0.002984783281069769
2,95,1.0008085125503488,-0.0011853648338074321,-0.002328834577348056
2,96,1.0008744851104148,-0.002320792745413488,-0.0005703640518008929
2,97,1.0007767185610994,-0.0038041530690811672,0.0018894878602462625
2,98,1.0015333485667437,-0.004571106320507468,0.003906693501457168
2,99,1.000435455766924,-0.01081567401031768,0.01615379068739551
2,100,0.9996457100193175,-0.012211060680000885,0.021800554151271162
2,101,1.0037960022399302,0.051533780946336,0.005626465242871331
3,1,1.0009683131779696,3.25549628209634e-5,-5.581508490730684e-6
3,2,1.0009699366858211,8.307996673437099e-5,-3.961546822595256e-5
3,3,1.0009694516460992,0.00011060458165080762,-0.00010352132413557777
3,4,1.0009689794183683,0.0001344108780078096,-0.00019086906726795006
3,5,1.0009686507715108,0.00016285342672360865,-0.0002981127876594964
3,6,1.0009682683563683,0.00019610746808831927,-0.00042777412828373993
3,7,1.0009677667727899,0.000233490963960922,-0.000583532119788475
3,8,1.0009671562045774,0.00027482705227591944,-0.0007685320769070372
3,9,1.000966405413293,0.00031907279913289744,-0.0009852756269299213
3,10,1.0009654952073244,0.000363793948872904,-0.0012351262935511732
3,11,1.000964429780155,0.00040505984664069807,-0.0015170007882293454
3,12,1.0009632481006339,0.000437471324538184,-0.0018267692416001548
3,13,1.0009620399561912,0.0004543874017621646,-0.0021563052966370494
3,14,1.0009609583726908,0.00044833643556886464,-0.0024935230314357885
3,15,1.000960225509661,0.00041161456363725214,-0.0028223657598598195
3,16,1.0009601270359607,0.0003369979330584324,-0.003123845893906124
3,17,1.000960993353692,0.00021842372250193665,-0.0033769633518189023
3,18,1.0009631707445816,5.147985762734649e-5,-0.003560265470233814
3,19,1.0009669865010702,-0.00016638572426582541,-0.003652795662184201
3,20,1.0009727170215166,-0.00043589937339349473,-0.0036351410645954546
3,21,1.0009805612186997,-0.0007561051119923137,-0.0034896388523533383
3,22,1.0009906218513662,-0.0011244452536915755,-0.0032007177734414347
3,23,1.0010028870691268,-0.001536658108928977,-0.002754823579978854
3,24,1.0010172061272238,-0.001986484188822075,-0.002140972402752804
3,25,1.0010332519338885,-0.002465312786077041,-0.0013513382491246078
3,26,1.001050477297074,-0.0029619866387564564,-0.0003825353497698589
3,27,1.0010680796989393,-0.0034629705112606997,0.0007633245349959827
3,28,1.001084992659051,-0.003952976942206628,0.002077455085857816
3,29,1.001099918831741,-0.00441602188614636,0.003544066326145381
3,30,1.0011114134014663,-0.004836777867121902,0.005140496812753063
3,31,1.0011180203969627,-0.005202006202977289,0.006838508165871757
3,32,1.0011184369530532,-0.005501782713001454,0.008605986082716613
3,33,1.0011116767253836,-0.005730262701500551,0.010409328241104257
3,34,1.0010971879940158,-0.005885846500215653,0.012215513190123742
3,35,1.0010749137387087,-0.005970779071379942,0.013994112231144287
3,36,1.0010452755874215,-0.0059903390394214105,0.015718430402551498
3,37,1.001009108771501,-0.0059518370212170955,0.017366342610536472
3,38,1.0009675515422745,-0.005863616430793942,0.018920278932634715
3,39,1.0009219326506311,-0.005734201689058097,0.020367118319049124
3,40,1.0008736525293527,-0.005571656178209594,0.02169750733144173
3,41,1.000824095833265,-0.005383168651026907,0.022905366730987115
3,42,1.0007745528848968,-0.005174833714154574,0.02398704544560759
3,43,1.0007261805274836,-0.004951594178975576,0.024940824813120963
3,44,1.0006799676094376,-0.004717287579295481,0.025766178530887522
3,45,1.0006367341115388,-0.004474771216098286,0.02646342826077424
3,46,1.000597124699813,-0.004226076039440152,0.0270331971261797
3,47,1.0005616273701494,-0.003972588355836745,0.0274762270224653
3,48,1.0005305790089485,-0.003715218039283991,0.02779303217834024
3,49,1.0005041890853779,-0.0034545774472764705,0.02798382859599602
3,50,1.0004825482072675,-0.003191126896477752,0.028048389888363827
3,51,1.0004656490358586,-0.002925334365372718,0.0279860218665872
3,52,1.0004533955920845,-0.002657788782180306,0.027795663612408667
3,53,1.0004456180664976,-0.0023893398587329687,0.027475828473622867
3,54,1.0004420849942504,-0.0021211733399845497,0.02702506091742331
3,55,1.000442510221046,-0.0018549264564999748,0.026441729963474134
3,56,1.00044657207661,-0.0015927076662684203,0.025725037374459636
3,57,1.0004539098357745,-0.001337168511992531,0.02487446172034352
3,58,1.0004641540663661,-0.00109143342956368,0.023891605694038944
3,59,1.0004769073748336,-0.0008590946396534086,0.022778917019564686
3,60,1.0004917888054943,-0.0006440096878676503,0.021542747135751408
3,61,1.0005083914349464,-0.00045019047048086623,0.020190701038299928
3,62,1.0005263425851407,-0.0002814488929348329,0.01873634719691151
3,63,1.000545233099874,-0.00014119335553694295,0.017194206759786917
3,64,1.000564695356234,-3.1969096489139946e-5,0.015586628838637845
3,65,1.000584308411259,4.473621108247918e-5,0.013935160375003064
3,66,1.0006036982313717,8.891561456941131e-5,0.012270235707825646
3,67,1.0006224374316375,0.0001020737547622536,0.010617699785719178
3,68,1.000640158282715,8.740355258506899e-5,0.009012217796186172
3,69,1.000656479568128,4.9473095621747166e-5,0.007478229937840691
3,70,1.0006711162382087,-5.94239234840197e-6,0.006048130668328565
3,71,1.0006838398530968,-7.232971312993281e-5,0.004737919561150614
3,72,1.0006945107029248,-0.00014296755442847232,0.0035711693041554898
3,73,1.000703127193901,-0.00021192016641910584,0.002550114809260999
3,74,1.0007098191346606,-0.0002744354230494283,0.0016855111018394696
3,75,1.0007148044485004,-0.00032607833518133065,0.000965166258894044
3,76,1.000718182252911,-0.00036276259896538855,0.0003889781832312429
3,77,1.0007203157675024,-0.0003840435846211836,-6.701685857681543e-5
3,78,1.0007217549326852,-0.00039525420033687203,-0.000411484578330069
3,79,1.0007229053731137,-0.0004023128979334094,-0.0006708824919642698
3,80,1.0007234288024551,-0.00040330025988388047,-0.0008472146004295214
3,81,1.0007229013087282,-0.0003868919012866405,-0.0009638502021349697
3,82,1.0007212853956515,-0.0003384057231343862,-0.001033590901102499
3,83,1.0007190857249562,-0.0002471853409508852,-0.0011041349549710789
3,84,1.0007167177490897,-0.00011000274618539918,-0.0012114766170206264
3,85,1.0007143279495294,6.961180759060423e-5,-0.0014126135084493747
3,86,1.0007116349053462,0.0002805019085771576,-0.0017343473632860681
3,87,1.000708550453568,0.0004976187026263778,-0.0022052087622179356
3,88,1.0007039047232023,0.0006882670773381501,-0.002803096302155694
3,89,1.000699609657405,0.0008128845411045348,-0.003504439343854054
3,90,1.0006953258444033,0.0008200540706083655,-0.004213808467714061
3,91,1.0006930569518926,0.0006733568801358353,-0.004857287944139768
3,92,1.0006972948646153,0.000274171692922894,-0.005284657945847314
3,93,1.000691279961694,-0.0003643012098428077,-0.00544307469289256
3,94,1.0007482517693487,-0.0011519179918546626,-0.005453942625451564
3,95,1.0007558160030037,-0.0025139412342250547,-0.004472161964858735
3,96,1.0006268181030995,-0.0036746988836620365,-0.003412971531527843
3,97,1.0010801685187458,-0.005351676460865663,-0.0029929398196930643
3,98,1.0007062258167112,-0.01244060552761381,0.003553655139384218
3,99,0.9995411677068997,-0.016984847184862234,0.005926191062419874
3,100,1.000605193146049,-0.002742539051378123,-0.0006271604429829678
3,101,1.0005252335477313,0.055190008968160176,-0.0019260254264471892
4,1,1.0009679522570878,5.341355529222221e-5,-6.853866626444357e-6
4,2,1.000969790801436,0.00013952187469267694,-4.6929592764732695e-5
4,3,1.0009695370511877,0.00019875426749065505,-0.00012333744384190504
4,4,1.0009690920816328,0.0002489692524415109,-0.00023158561960384013
4,5,1.000968608230134,0.00030214825133010795,-0.0003663838890215276
4,6,1.000968248453465,0.00036407815577692277,-0.000525652864013864
4,7,1.0009678521368959,0.00043563805393435185,-0.0007115725422823658
4,8,1.0009673506216807,0.0005163894709047394,-0.0009264873530283857
4,9,1.000966762303604,0.0006051575979974984,-0.001170138812952742
4,10,1.0009660895891708,0.0006988782825556137,-0.0014397398208993279
4,11,1.0009653595316155,0.0007923824426708498,-0.0017287203629480822
4,12,1.0009646344726686,0.0008787475344410919,-0.002026413973182512
4,13,1.0009640158988644,0.000949949431774767,-0.002317636026297361
4,14,1.000963649965055,0.0009977890626256276,-0.002583676829392845
4,15,1.0009637216289549,0.0010149199756462964,-0.002803275171542376
4,16,1.000964441232243,0.0009957556915972886,-0.002954689420121193
4,17,1.0009660220088399,0.0009369934163309641,-0.0030171020027647435
4,18,1.0009686573751237,0.0008375853676603371,-0.0029722224804562074
4,19,1.000972501672583,0.0006981993293002005,-0.0028044950660029216
4,20,1.0009776636942374,0.0005204401929615585,-0.0025011226867503083
4,21,1.000984210394448,0.00030622592272228614,-0.0020509849405405353
4,22,1.000992175758295,5.767433347143777e-5,-0.0014441530771032104
4,23,1.0010015564223342,-0.00022235423958461204,-0.0006713979773382619
4,24,1.001012281038762,-0.0005292022870706434,0.00027484288136186286
4,25,1.0010241502435797,-0.0008552588046258956,0.0013991842319574493
4,26,1.0010367613572835,-0.0011891837705232942,0.0027009835148425346
4,27,1.0010494435659991,-0.0015158916122045012,0.00417266996712544
4,28,1.0010612252260993,-0.0018174429752282671,0.005798232785908085
4,29,1.0010708675776308,-0.002074778387758358,0.007553436142835706
4,30,1.001076968724239,-0.0022699656452736883,0.009406845466374145
4,31,1.0010781389843368,-0.002388457705018677,0.011322549840877895
4,32,1.0010731876235492,-0.002420810366482874,0.013262901046241865
4,33,1.0010612967497978,-0.002363511730366839,0.015191775219842609
4,34,1.0010421150057045,-0.002218836866059053,0.01707665109354315
4,35,1.0010157934212531,-0.0019939254899281385,0.018890450353689307
4,36,1.0009829279683797,-0.0016993934571375117,0.02061186191564927
4,37,1.000944481173392,-0.00134783134839904,0.022225605214844776
4,38,1.0009016505055333,-0.0009524351459899164,0.023721516870254405
4,39,1.0008557706629442,-0.0005259340344747725,0.025094078534016805
4,40,1.0008081916756728,-7.984789339553161e-5,0.026341118710416476
4,41,1.000760220744539,0.0003759304642321766,0.027463302896391407
4,42,1.0007130423455177,0.0008333018977825584,0.02846292986602702
4,43,1.0006677091110106,0.0012859300363606391,0.02934366864351797
4,44,1.0006250987027783,0.0017290946740101155,0.030109578050084913
4,45,1.0005859387802483,0.0021594675629354318,0.03076511922252397
4,46,1.0005507834148546,0.002574867529179126,0.031314360356690406
4,47,1.0005200540130366,0.0029740038588240065,0.031761199521976646
4,48,1.0004940210867095,0.0033562430328455154,0.03210867305557428
4,49,1.0004728487283152,0.0037213838576061666,0.03235931488724295
4,50,1.000456574559073,0.00406946845747353,0.032514499666417195
4,51,1.0004451516968924,0.0044005956428387165,0.0325748872743569
4,52,1.000438425596553,0.004714772042431656,0.032539767100279324
4,53,1.0004361718456771,0.005011748135025415,0.03240756566574723
4,54,1.0004380726971442,0.005290898955032672,0.03217521171253878
4,55,1.000443751631121,0.0055510695610137975,0.03183871235973566
4,56,1.0004527552784557,0.005790489307799629,0.031392638751339824
4,57,1.0004645868385391,0.006006634133026205,0.03083079081641786
4,58,1.0004787008155933,0.006196209114945587,0.030146015795696857
4,59,1.0004945363359934,0.006355070062189222,0.02933095082241229
4,60,1.0005115311838404,0.006478347264707038,0.028378513412277692
4,61,1.000529150783355,0.006560504737055983,0.027282567312266828
4,62,1.0005469223680332,0.006595697427905577,0.026039507037842004
4,63,1.0005644451862508,0.006578047651024596,0.024648350431105248
4,64,1.0005814355483367,0.006502278111707315,0.023113804116871757
4,65,1.000597694779378,0.006364197719053875,0.0214447364874969
4,66,1.0006131537576288,0.006161502672547955,0.019658942491612545
4,67,1.000627778198651,0.0058942736819950995,0.01777841541761781
4,68,1.0006416170154506,0.005565618721296139,0.01583591747820563
4,69,1.000654658782353,0.005181810237012509,0.013865422472194694
4,70,1.0006669209703956,0.004752363937189234,0.011910747142367159
4,71,1.0006782871488125,0.004289508942561698,0.010010506132015892
4,72,1.0006886615222663,0.003807545985475356,0.008209736182825021
4,73,1.0006978294110538,0.0033215411281014313,0.006540181579386199
4,74,1.0007057101078538,0.0028460507032635122,0.005035667565604054
4,75,1.000712216042991,0.002394336132047843,0.0037102332330624745
4,76,1.0007173414877266,0.0019785196631060802,0.0025794920907403077
4,77,1.0007209630753138,0.001607406219718219,0.0016378367674630418
4,78,1.0007233603957861,0.001281875510965324,0.000880140781251557
4,79,1.0007250985423397,0.0009951037876379514,0.00028078035195887535
4,80,1.0007265602109927,0.0007440640345702144,-0.00017396450058978908
4,81,1.000727298522993,0.0005411963807162954,-0.0005051963697116481
4,82,1.0007267919646279,0.0004135659319678149,-0.0007264156307628008
4,83,1.0007251777541186,0.0003882074810359595,-0.0008805374731556439
4,84,1.0007231890926782,0.0004768382608248373,-0.001019308335537274
4,85,1.000721641278511,0.0006718664049530149,-0.0012142454855151013
4,86,1.000720854612062,0.0009415190657471305,-0.0015115857373818877
4,87,1.0007197720919943,0.0012313282292569915,-0.0019356334324309324
4,88,1.0007190376159256,0.001471396340515092,-0.0024590821760850303
4,89,1.0007168578535588,0.001580366185176413,-0.003008304505279827
4,90,1.000716405856048,0.0014887311563884834,-0.003494732525274446
4,91,1.000715651870475,0.0011030307408978466,-0.003766812087963566
4,92,1.0007074431959344,0.0004688440418335079,-0.0038046134304457182
4,93,1.0007462925515742,-0.0003788548564065177,-0.00371569814815878
4,94,1.000722138753257,-0.001861930283994556,-0.002914752093460183
4,95,1.0006836516140716,-0.003140001006309597,-0.002454572287912042
4,96,1.0010076157869958,-0.004448651083132205,-0.0020901579736801487
4,97,1.0006071548130582,-0.009791047016344099,0.0025146464901155373
4,98,1.0000796327119452,-0.014318894176477123,0.003027621848869381
4,99,1.000915979713259,-0.01066919233892441,-0.002081076527789417
4,100,1.0013038770730698,-0.0015273502665389285,-0.0024747351096462804
4,101,0.9998049035290469,0.05208557323407683,-0.00055140642713428
5,1,1.0009676759207473,7.33876838531903e-5,-7.795228233397006e-6
5,2,1.0009697012116292,0.00020085352106001647,-5.3740413724834425e-5
5,3,1.0009694190539864,0.0002956694580726057,-0.00014102453121778554
5,4,1.000969110350855,0.00037549598631428263,-0.0002626817808996906
5,5,1.0009686674233553,0.0004524709791908446,-0.00041313660878791194
5,6,1.0009682250878351,0.0005350053346187665,-0.0005880388845046339
5,7,1.0009678745914468,0.000626306734961276,-0.0007847682358696391
5,8,1.0009674720334165,0.0007235094790489933,-0.0010024601927563213
5,9,1.0009669603457096,0.0008204894154673951,-0.001237337057322795
5,10,1.0009663636825825,0.0009085915931538991,-0.0014813996500183213
5,11,1.0009656926118347,0.000976252254424274,-0.0017221943087089512
5,12,1.000964976925341,0.001009793242354559,-0.0019435852595422595
5,13,1.0009642786043824,0.0009949610061742687,-0.002126118396375997
5,14,1.000963695803042,0.0009186738722355705,-0.0022491551072096436
5,15,1.0009633650375804,0.0007706166920099771,-0.0022924020644542005
5,16,1.0009634557052485,0.0005442469460585727,-0.0022382113241258862
5,17,1.0009641578420296,0.00023691284909237569,-0.0020721432654335157
5,18,1.000965674114953,-0.00015092564570532652,-0.0017832813977525334
5,19,1.0009682192067453,-0.0006170050515883212,-0.0013625112348325862
5,20,1.0009720341045236,-0.0011584360920518088,-0.0008011075876411602
5,21,1.0009773998837481,-0.0017720913478441735,-8.870627348858637e-5
5,22,1.0009846308334833,-0.0024538427568855086,0.0007866603964604451
5,23,1.0009940197989464,-0.0031968241223833786,0.0018377288948729636
5,24,1.0010057301922903,-0.003989373715009208,0.0030747007098459477
5,25,1.0010196589947724,-0.004813535099493381,0.004501994660858991
5,26,1.0010353026357572,-0.0056448147569922915,0.00611429269688295
5,27,1.001051681312621,-0.006453534656680856,0.007894797978031163
5,28,1.0010673478588081,-0.0072076517603278795,0.009814591672592674
5,29,1.0010805289653384,-0.00787649504496758,0.011835240986539335
5,30,1.0010893445327305,-0.00843450948967964,0.013912152415524869
5,31,1.001092089433607,-0.008864109148720456,0.015999748385518053
5,32,1.001087450251794,-0.00915702915061947,0.018055198669948938
5,33,1.0010746761819158,-0.009314104117739738,0.02004218254488764
5,34,1.001053599449341,-0.009343781201766063,0.021931974613016596
5,35,1.0010246221650954,-0.009259944719757964,0.02370445722653946
5,36,1.0009885765277424,-0.009079574024292741,0.025346786087067023
5,37,1.000946634603469,-0.008820668364937218,0.02685289415032543
5,38,1.0009001291543174,-0.008500625148883167,0.02822129891299429