TITLE="CMs_NON_Orthogonal Re = 10000.0"
VARIABLES = X,Y,Rho,U,V
ZONE
I = 101	J = 101
F=POINT
1,1,1.0009918515990879,1.997129397329623e-6,-2.7690577322747706e-6
1,2,1.0009929242767541,5.621874548416813e-6,-1.7867997141297538e-5
1,3,1.0009928557089114,6.0439355531131335e-6,-3.767529248155043e-5
1,4,1.000993089922572,6.959795828246431e-6,-6.063228472194003e-5
1,5,1.0009933324916536,7.957532939087945e-6,-8.817562756168028e-5
1,6,1.0009935719872844,8.78654440515033e-6,-0.00012138221523487725
1,7,1.000993831529453,9.20987906639971e-6,-0.00016112826768467384
1,8,1.0009941232685486,8.906876606965662e-6,-0.00020854172054472162
1,9,1.000994438932076,7.385082833541079e-6,-0.0002647181090401642
1,10,1.0009947614041343,3.944814528657197e-6,-0.0003308565408504641
1,11,1.0009950642313337,-2.330358090066926e-6,-0.0004078163240160932
1,12,1.0009953224374222,-1.257632023458764e-5,-0.0004961589381851891
1,13,1.00099552311517,-2.81336296509179e-5,-0.000595670866678776
1,14,1.00099568079085,-5.0508450813507054e-5,-0.000705367006328298
1,15,1.0009958538639736,-8.131352940074351e-5,-0.0008230580747252142
1,16,1.0009961614585288,-0.00012217136850538289,-0.0009454061399222473
1,17,1.0009967931711974,-0.00017460675368788646,-0.001067658267067063
1,18,1.0009980087224997,-0.0002399237194857797,-0.001183860047938577
1,19,1.0010001215899464,-0.0003191032949872348,-0.0012868183938441954
1,20,1.0010034694592085,-0.0004127091504641662,-0.0013684613993278393
1,21,1.0010083712293811,-0.0005208253330140869,-0.0014199706667450602
1,22,1.0010150774696067,-0.0006430047200220313,-0.0014322210119769752
1,23,1.001023715989996,-0.0007782469450027273,-0.0013960438771044273
1,24,1.0010342399793806,-0.0009249902790979275,-0.001302767422947692
1,25,1.0010463811285788,-0.0010811388609726772,-0.001144658702064471
1,26,1.0010596159360414,-0.0012441182780049843,-0.0009156081006183493
1,27,1.0010731507571164,-0.0014109771922001268,-0.0006117029056509978
1,28,1.0010859384921176,-0.0015785220849569034,-0.0002318872544761304
1,29,1.001096734196371,-0.0017434848147955277,0.00022163771464620293
1,30,1.0011041910769796,-0.0019027006704485695,0.0007431355910855071
1,31,1.0011069844656302,-0.0020533016737906847,0.0013234399340083022
1,32,1.0011039486486708,-0.0021929133543760852,0.0019503044730283655
1,33,1.0010942055851082,-0.002319818394979792,0.0026091912229309656
1,34,1.0010772655718996,-0.00243301678644518,0.0032842312524807953
1,35,1.0010530812237688,-0.0025321765760737865,0.00395930676062249
1,36,1.0010220480958236,-0.002617506762526628,0.004618963835769194
1,37,1.0009849545627831,-0.002689605383484665,0.005249183758937172
1,38,1.0009428955871034,-0.0027493084375214303,0.0058378617170907615
1,39,1.0008971667982187,-0.002797563222042958,0.006375095740750826
1,40,1.000849158310729,-0.0028353269539840827,0.006853224535197302
1,41,1.0008002594075203,-0.002863497764556208,0.007266744013696148
1,42,1.000751784607702,-0.002882869216878549,0.007612084632045976
1,43,1.0007049199916036,-0.002894109722755742,0.007887357317253142
1,44,1.0006606928328097,-0.0028977557850449784,0.008092062865027855
1,45,1.000619955280625,-0.002894220030340095,0.008226823082224867
1,46,1.0005833848033387,-0.0028838040704699808,0.008293142459953448
1,47,1.000551488033984,-0.002866718760388387,0.008293198411377717
1,48,1.0005246157425234,-0.0028431036102253768,0.008229704188692507
1,49,1.0005029717568585,-0.002813049913178581,0.008105769715494168
1,50,1.0004866319966526,-0.0027766199453823377,0.007924873784524014
1,51,1.0004755498067015,-0.002733869263799759,0.007690771090262289
1,52,1.000469575558232,-0.0026848622836818515,0.007407568082505181
1,53,1.0004684550607346,-0.002629693389166372,0.007079629132498743
1,54,1.0004718514752926,-0.0025684953275869004,0.006711754857167155
1,55,1.0004793365048275,-0.002501461308043689,0.006309014485772426
1,56,1.0004904197072702,-0.002428838950107389,0.005877046896204172
1,57,1.0005045331830014,-0.002350960243289529,0.00542170125603838
1,58,1.000521075050254,-0.0022682055707535305,0.004949534168341465
1,59,1.000539387509459,-0.0021810600817943767,0.004467056241234532
1,60,1.000558820868207,-0.0020900162706998992,0.0039816226205541885
1,61,1.0005787022992518,-0.001995700917927267,0.003499921345677406
1,62,1.000598423420104,-0.0018986555605802736,0.003029722093331384
1,63,1.0006173929781308,-0.0017996222980438254,0.002576931871951708
1,64,1.0006351455835567,-0.001699096078246627,0.0021491698946329747
1,65,1.0006512691105585,-0.0015979100571803858,0.0017501738987853075
1,66,1.000665522147449,-0.0014964305835839002,0.0013869171940458604
1,67,1.0006777309110617,-0.0013955430326561408,0.001059492704551119
1,68,1.0006879089579745,-0.0012954729044444813,0.0007739950224012614
1,69,1.0006961178596099,-0.0011971128102804835,0.0005259605480371732
1,70,1.000702554549412,-0.0011006435499594431,0.0003207296418530815
1,71,1.000707436618998,-0.0010068068145600354,0.00014951032656566294
1,72,1.00071111257075,-0.0009158279007984941,1.7024001950494692e-5
1,73,1.00071382805835,-0.0008284926002913733,-8.846252234501253e-5
1,74,1.0007157624750256,-0.0007450349169658401,-0.00016178880790279846
1,75,1.0007171546205011,-0.0006657568813537949,-0.00021623454573314757
1,76,1.0007184332543864,-0.0005908492942603357,-0.00024661222551370813
1,77,1.0007197378006005,-0.000521162952177726,-0.00026635678692955893
1,78,1.0007208201394693,-0.0004572402161248616,-0.0002671868989000784
1,79,1.0007214285787134,-0.00039919642272006803,-0.00026039444485027196
1,80,1.0007217738649155,-0.0003462297353244375,-0.00023686372512808158
1,81,1.0007222548245285,-0.0002975744227767995,-0.0002108343335225936
1,82,1.000723185304267,-0.00025225371084390986,-0.00017551438025083558
1,83,1.000724563809904,-0.00020978440452220528,-0.00014781707357395496
1,84,1.000726292292152,-0.0001695565257551636,-0.00012097155166107865
1,85,1.0007282564680466,-0.00013195721696597466,-0.00011285231883882578
1,86,1.000730201280929,-9.71136988756775e-5,-0.0001152079056201453
1,87,1.000732163812418,-6.718370215157847e-5,-0.0001451754920456702
1,88,1.000733613513909,-4.361912099164506e-5,-0.0001872681934666332
1,89,1.0007346231451941,-2.8233614109236698e-5,-0.0002507373514186422
1,90,1.000735086401515,-2.486573527144564e-5,-0.00030442713937692804
1,91,1.0007349630361082,-2.8509717631338415e-5,-0.00034400051549431175
1,92,1.0007442032521099,-5.943212083252046e-5,-0.00031441426180762983
1,93,1.0007482497635372,-0.00012013384954623858,-0.00014862908977303685
1,94,1.0007502014614391,-0.00020189509834127282,0.00023886002755363884
1,95,1.000750432400847,-0.00029175861348025025,0.0008964982706384074
1,96,1.0008116663827926,-0.0002650104185751593,0.0016785101213798786
1,97,1.0009993918987474,-0.0010253137979360464,0.0033786150659356542
1,98,1.0003109543501914,-0.001089354244020238,0.0065809995339001955
1,99,1.0007772413314704,0.0005659958875153061,0.007662365131693144
1,100,1.0019534680963054,-0.007686333372877657,0.01641277602318297
1,101,0.9965361088937817,0.026525499707654734,0.013996625017898702
2,1,1.0009905704398756,1.804503247837584e-5,-5.734186905427872e-6
2,2,1.000991614281257,3.949077630557972e-5,-3.634616444510139e-5
2,3,1.0009910317614445,4.78439699915474e-5,-8.595095937507064e-5
2,4,1.00099081981123,5.716493135631111e-5,-0.00014722414660254285
2,5,1.000990539370296,6.974746067920626e-5,-0.00022154334625627505
2,6,1.000990128815928,8.490332391794032e-5,-0.0003121093762481927
2,7,1.00098962845269,0.00010299126677799704,-0.0004214003057197001
2,8,1.0009890157634038,0.00012465629547575146,-0.0005522846544323415
2,9,1.000988265581419,0.00015043047761701965,-0.0007075776412556051
2,10,1.0009873527503172,0.00018060319808405056,-0.0008898392918296787
2,11,1.000986267518531,0.00021512914094093695,-0.0011005071145621268
2,12,1.0009850288075777,0.0002535932243852764,-0.0013394821476305334
2,13,1.0009837037667098,0.00029519979894848246,-0.0016042723551873603
2,14,1.0009824246939605,0.00033880355032699897,-0.0018897182307603471
2,15,1.000981404992019,0.00038298482658581364,-0.0021874561626019744
2,16,1.0009809432267371,0.00042617057778251597,-0.002486083871999922
2,17,1.0009814162679653,0.0004667794971445495,-0.0027712054158358763
2,18,1.0009832530814766,0.0005033471938534893,-0.0030261358550858464
2,19,1.0009868979770844,0.0005346045202786479,-0.00323239850934752
2,20,1.000992761916699,0.0005595038937926643,-0.0033706307684468464
2,21,1.001001174120588,0.0005772251532922421,-0.0034211369718901248
2,22,1.0010123317971562,0.0005872047710577712,-0.0033647134593750355
2,23,1.0010262566759685,0.0005892357987029198,-0.0031832048225583255
2,24,1.0010427525121022,0.0005836522918840261,-0.002860433829392104
2,25,1.001061370627901,0.0005715710978639431,-0.002383058496799636
2,26,1.0010813812717259,0.0005551113465539654,-0.0017418200022612544
2,27,1.001101768085104,0.0005374968500781415,-0.0009326194858669767
2,28,1.0011212518462764,0.0005229662665568806,4.23624883000705e-5
2,29,1.0011383579783972,0.0005164725964587738,0.001174101112219221
2,30,1.001151518862279,0.0005231966086995136,0.0024465429049737118
2,31,1.0011592120447408,0.0005479411635888123,0.0038372413355857505
2,32,1.0011601100520662,0.0005945137042208533,0.00531850213845443
2,33,1.001153227057268,0.0006652374198403292,0.006859191970168311
2,34,1.0011380237974916,0.0007607034760249252,0.008426677671291084
2,35,1.0011144623391084,0.0008798017475913428,0.009988835807801022
2,36,1.0010829913341128,0.0010199831706437963,0.011515646441956595
2,37,1.0010444840280754,0.0011776639141445704,0.01298043506878794
2,38,1.0010001312922143,0.0013486714586437797,0.014360532244309195
2,39,1.0009513280578035,0.001528655388103413,0.0156375620367793
2,40,1.0008995534542589,0.0017134132087762734,0.016797309264579695
2,41,1.0008462781392329,0.0018991155966168185,0.017829384517021075
2,42,1.0007928832260689,0.002082432601303319,0.018726717103546616
2,43,1.000740616395948,0.0022605805993305243,0.019484989432222172
2,44,1.0006905559584705,0.002431306542705224,0.02010210568303772
2,45,1.0006436081487757,0.0025928355445159292,0.020577639149795032
2,46,1.0006004998162723,0.0027437915264422433,0.02091247097695135
2,47,1.0005617988483821,0.002883114095275975,0.021108334978012653
2,48,1.0005279167993004,0.003009967738989181,0.02116771023135225
2,49,1.0004991384680753,0.00312366687539094,0.02109344380201542
2,50,1.0004756215768065,0.003223597397183773,0.020888939018337944
2,51,1.0004574291989425,0.0033091673273940776,0.020557777017425484
2,52,1.00044451922,0.0033797482952914754,0.020104250743260697
2,53,1.0004367797349063,0.0034346611078879077,0.019532859685229897
2,54,1.0004340039510589,0.003473139429808474,0.01884927582516164
2,55,1.0004359333712298,0.00349436031729455,0.018059522795291185
2,56,1.000442214316326,0.003497431856479277,0.017171510459642256
2,57,1.0004524577043366,0.003481481310064288,0.016193609220764595
2,58,1.0004661723939214,0.0034456656626064347,0.015136951944522253
2,59,1.0004828544626565,0.0033893263739952825,0.014012969276111542
2,60,1.0005018906952787,0.0033120109556708023,0.012836742514440577
2,61,1.0005226939626393,0.0032136858754099012,0.011622892222107103
2,62,1.0005445674463722,0.0030947361866852626,0.010390402761705782
2,63,1.00056690368503,0.00295619797257463,0.009156099418842009
2,64,1.0005889963350998,0.002799686686555948,0.007941591163570755
2,65,1.0006103151740482,0.0026275703674889313,0.006763495928741973
2,66,1.0006302494130097,0.002442783816426405,0.005643458662901154
2,67,1.0006484572863301,0.002248894560853,0.004594356562493414
2,68,1.0006645263962402,0.002049778415152093,0.003634564585188062
2,69,1.0006783858600745,0.0018495072508195114,0.002769684118304388
2,70,1.000689877810025,0.00165203030605479,0.0020120566714893497
2,71,1.0006991907998561,0.0014611662424409,0.0013580336206864536
2,72,1.000706390120144,0.0012800403268076067,0.0008128760651960586
2,73,1.000711908210213,0.001110771419072148,0.0003641173155071793
2,74,1.0007158963158955,0.000954840937760477,1.1751942339824206e-5
2,75,1.000718689652361,0.0008139875239317132,-0.0002622721370162494
2,76,1.0007205138126074,0.0006889734515140879,-0.00046139726642577305
2,77,1.0007220624114894,0.0005778294533745741,-0.0006073718495967298
2,78,1.0007234414887698,0.0004770274896688013,-0.0007011329420035014
2,79,1.0007245019235191,0.00038532344302826937,-0.0007585025666978942
2,80,1.0007247503210326,0.00030525616288206423,-0.000775358309301592
2,81,1.000724434276467,0.00024079472938498311,-0.0007723792314142209
2,82,1.0007237832453706,0.0001948471344685399,-0.000756236560625498
2,83,1.0007232753905786,0.0001685039610740196,-0.0007601969678943409
2,84,1.0007226318089317,0.0001613878616580812,-0.000797105259581874
2,85,1.0007218160129798,0.00017304310629505712,-0.0009022455173338534
2,86,1.000720394251085,0.0002005420169097774,-0.0010836974978341548
2,87,1.0007180042474135,0.0002378716438506457,-0.0013661921758795202
2,88,1.000715033547537,0.00027290056688958586,-0.0017364967010972984
2,89,1.0007109953001923,0.00028895215801803326,-0.002186049728435879
2,90,1.0007077214477393,0.0002710675685150386,-0.0026664372308736754
2,91,1.00070825700536,0.00018520139706098526,-0.0031164507383824192
2,92,1.0007135587180578,4.768671260961318e-7,-0.0034336946396728873
2,93,1.0007403161878206,-0.00037304866626713067,-0.003499400110758661
2,94,1.000751922512189,-0.0008570751714358955,-0.003122402725017807
2,95,1.000812676465865,-0.0012149709691222374,-0.0024469275102965505
2,96,1.0008798431375765,-0.0023605002081558838,-0.0006595429038133352
2,97,1.0007820409752979,-0.003850416222843256,0.0018380837815636275
2,98,1.0015404159881236,-0.0046178616939176265,0.0038970411968522905
2,99,1.000441211311436,-0.010831435166382653,0.016166883795764864
2,100,0.9996481858577646,-0.012206629361269873,0.02180276619760165
2,101,1.0037998318869439,0.05153318667860864,0.005627439510535757
3,1,1.0009906064937018,3.3214707878481164e-5,-5.651538358375851e-6
3,2,1.00099224407172,8.482491543734336e-5,-4.020086459656637e-5
3,3,1.000991759804585,0.00011361294747621368,-0.00010552006931591361
3,4,1.0009912562772336,0.00013825914631367844,-0.00019500227903468013
3,5,1.0009908894665345,0.0001675281134927737,-0.0003047796551092164
3,6,1.0009904681863584,0.00020194662446615237,-0.00043727680216402873
3,7,1.0009899216557259,0.00024094211478755797,-0.0005962379293155669
3,8,1.000989256599407,0.00028440413497705377,-0.0007848335624928268
3,9,1.0009884420838449,0.00033141152974577984,-0.0010055006270138383
3,10,1.0009874607536366,0.00037969153419843796,-0.001259440664214139
3,11,1.0009863197231448,0.0004255006256286171,-0.0015453275268588608
3,12,1.0009850626844201,0.00046366592488416723,-0.0018587038396197884
3,13,1.0009837861950241,0.00048782483189534155,-0.002191070870187151
3,14,1.0009826516180866,0.0004908250611791112,-0.0025299570049055523
3,15,1.0009818897670926,0.00046528493233739983,-0.0028589503394315877
3,16,1.000981794082987,0.00040424978853920434,-0.0031587385111637506
3,17,1.0009827009949486,0.00030181497954177345,-0.0034080137753636506
3,18,1.000984960972671,0.00015357396405600132,-0.0035849837094593
3,19,1.0009889039629436,-4.318068299106062e-5,-0.003668285686270951
3,20,1.0009948078070527,-0.00028946035567288016,-0.003638013694251579
3,21,1.0010028712155359,-0.0005846612546557616,-0.0034759583529353757
3,22,1.0010131935615603,-0.00092656959847546,-0.003166019641173491
3,23,1.0010257536528826,-0.0013111920816636093,-0.0026942466819900816
3,24,1.0010403819163667,-0.0017324203987524546,-0.002049509007865378
3,25,1.001056719886467,-0.002181671794331825,-0.00122418799164611
3,26,1.0010741753067272,-0.0026477231003959704,-0.0002155125637351061
3,27,1.0010918887220093,-0.0031169344525148767,0.0009733877832382357
3,28,1.0011087294223604,-0.0035739429650750534,0.002332377956206132
3,29,1.001123336479755,-0.004002788090823022,0.003844119551393215
3,30,1.0011342125142297,-0.004388321802622041,0.005484378227470032
3,31,1.0011398709310257,-0.00471766640158874,0.007223501684223228
3,32,1.001139007250374,-0.004981421184217569,0.009028269329290795
3,33,1.0011306642320115,-0.005174367575217605,0.010864365306010603
3,34,1.0011143450394453,-0.005295553490708225,0.012698455852527721
3,35,1.0010900647650904,-0.005347814847351549,0.014500151704882546
3,36,1.0010583235849901,-0.005336907820689673,0.016243060611885674
3,37,1.0010200328589587,-0.005270479068046635,0.017905529644943668
3,38,1.0009763974066141,-0.005157065203902391,0.01947054031451968
3,39,1.0009287999296839,-0.005005258367440598,0.020925536009269455
3,40,1.0008786806840946,-0.004823091802802359,0.022261688027403692
3,41,1.0008274516043405,-0.004617655856556792,0.023473376056458245
3,42,1.0007764190883364,-0.004394906317790807,0.02455732103659429
3,43,1.0007267479994755,-0.004159628809731199,0.025512090761671005
3,44,1.0006794286438516,-0.00391550296694836,0.026337353076987386
3,45,1.0006352787356674,-0.003665238298267443,0.027033547367396965
3,46,1.0005949373935659,-0.003410736635939451,0.027601330974972818
3,47,1.0005588858952752,-0.0031532765744496445,0.028041421577044687
3,48,1.000527452476992,-0.002893685625389589,0.028354232673452537
3,49,1.0005008377694717,-0.0026325176956491668,0.028539840666159718
3,50,1.000479121557695,-0.0023702018445772677,0.028597801808387408
3,51,1.0004622856968182,-0.002107198812760087,0.028527189610208416
3,52,1.0004502206839279,-0.0018441192867063782,0.02832662279567911
3,53,1.000442743445914,-0.0015818592867110372,0.027994318570435092
3,54,1.000439605721602,-0.0013216826700630066,0.02752841966638371
3,55,1.0004405057928307,-0.0010653292329550984,0.02692699021564038
3,56,1.0004451023832828,-0.0008150426164669869,0.02618879804307609
3,57,1.0004530185280993,-0.0005736280792146011,0.025313114589409783
3,58,1.0004638643091062,-0.00034438812804477703,0.024301171764380253
3,59,1.0004772283878087,-0.0001310912308337467,0.02315548330811091
3,60,1.0004927110937254,6.223081920241824e-5,0.021882234087868806
3,61,1.00050989659598,0.0002314360244952831,0.020489597085613515
3,62,1.0005283966669538,0.00037263248190807027,0.018991318006241955
3,63,1.000547798458463,0.00048243722169103196,0.01740319292332399
3,64,1.0005677203739558,0.0005584372362944079,0.015748120830436363
3,65,1.0005877398773713,0.0005994368837348474,0.014049674831366361
3,66,1.0006074681613113,0.0006058598166292176,0.012338995032696124
3,67,1.0006264751874698,0.0005798079092213227,0.010644465105377799
3,68,1.000644378415318,0.0005251720842582502,0.009001112687071213
3,69,1.0006607955594438,0.0004473041260630188,0.007435929708720549
3,70,1.0006754368238584,0.0003527707757792051,0.005980707463945014
3,71,1.0006880770708193,0.00024884742777254044,0.004653517605400888
3,72,1.0006985845280694,0.00014286170677899073,0.0034759980926004808
3,73,1.0007069773807957,4.1120910274753895e-5,0.0024517463416831387
3,74,1.0007134180442279,-5.134622549576985e-5,0.001588356995150357
3,75,1.0007181184130058,-0.00012975933452487247,0.0008747463593837557
3,76,1.0007211949903863,-0.00018999666595391205,0.0003069822762446757
3,77,1.000723061152509,-0.00023240696758856802,-0.00013802432695393655
3,78,1.0007243219744788,-0.0002632838035447457,-0.00047274420990850175
3,79,1.0007252995020903,-0.000288333572015232,-0.0007211318151868145
3,80,1.0007255756620261,-0.00030421792965787387,-0.0008879689102153402
3,81,1.000724724230635,-0.0002984211297674657,-0.0009949866164468389
3,82,1.0007228262815966,-0.00025633780237242917,-0.0010604380861720963
3,83,1.00072043482699,-0.00016835266322117918,-0.0011318570168913733
3,84,1.0007179635420465,-3.2394386845637265e-5,-0.0012499198428510213
3,85,1.0007154722271139,0.00014688448990483177,-0.001468681445365715
3,86,1.0007126303664455,0.0003568296980462929,-0.0018164125915065496
3,87,1.0007093061894965,0.0005710088362991543,-0.0023152616906361016
3,88,1.0007043917593108,0.0007555622341593847,-0.0029419507316526747
3,89,1.0006998432107217,0.0008697300727159521,-0.0036647092420022975
3,90,1.0006954137325923,0.0008624121323026596,-0.004387116824566405
3,91,1.0006933091350168,0.0006991510470749962,-0.005030507162151904
3,92,1.0006979818970256,0.000284120263664036,-0.00544872575425494
3,93,1.0006926082308891,-0.00036725407783206075,-0.005590870173255777
3,94,1.0007507584595192,-0.0011695534659491905,-0.005581516175081369
3,95,1.0007593101518029,-0.0025497212873169094,-0.004573372885349733
3,96,1.0006303067274713,-0.003730943545536716,-0.0034838600579211554
3,97,1.00108485210976,-0.005428085651537557,-0.0030171990801844363
3,98,1.0007101111753647,-0.012495864064911561,0.003554407619685731
3,99,0.999540853055674,-0.016987175611274444,0.0059288988341251484
3,100,1.0006091538948956,-0.002726518498850703,-0.0006225096327336191
3,101,1.0005299405909844,0.055196315154993236,-0.001923448527212578
4,1,1.0009902557897215,5.358060981037465e-5,-6.924078009118074e-6
4,2,1.0009921092814598,0.0001414903410735773,-4.7523685313394546e-5
4,3,1.000991861375503,0.00020276533802222527,-0.00012539533561156956
4,4,1.0009913895305205,0.0002540386444032818,-0.0002359198482642616
4,5,1.0009908673946308,0.0003076886657164683,-0.0003734373675607698
4,6,1.0009904684250828,0.0003699511041864633,-0.0005356259589276771
4,7,1.000990029947351,0.00044168196673954923,-0.0007246014211403433
4,8,1.0009894774132608,0.0005221149416358865,-0.0009426524783684453
4,9,1.0009888272457843,0.0006096614981313749,-0.0011893424486846163
4,10,1.0009880825950137,0.0007008028624061524,-0.001461566508843325
4,11,1.0009872716374684,0.0007898715052339185,-0.0017523482768629795
4,12,1.0009864584215322,0.0008694438339577764,-0.00205057136424815
4,13,1.000985747426496,0.0009310482028292357,-0.002340619676250001
4,14,1.0009852892665019,0.0009661149895442384,-0.002603422982182939
4,15,1.0009852744811663,0.000966986596090643,-0.0028174641312956766
4,16,1.000985920060563,0.0009277858295559105,-0.002960828853248738
4,17,1.0009874473547726,0.0008449077867666933,-0.003012550991332695
4,18,1.0009900604489403,0.0007169929211700833,-0.0029541345337671457
4,19,1.0009939279992555,0.000544439447878087,-0.002769705006347866
4,20,1.0009991773999736,0.0003287238600463085,-0.002446028236360994
4,21,1.0010058974366463,7.189967027445272e-5,-0.001971492399356775
4,22,1.0010141436592541,-0.00022340582736040502,-0.0013357476963305223
4,23,1.0010239274930404,-0.000553389186640823,-0.0005293697112508033
4,24,1.001035177237089,-0.0009120345636107263,0.00045502475480160165
4,25,1.0010476700930273,-0.0012900615931073294,0.0016214020788265617
4,26,1.0010609517912499,-0.0016743244492239278,0.002967980701384057
4,27,1.001074271767799,-0.0020480101725615842,0.004485637668836626
4,28,1.0010865573878485,-0.002391751446382036,0.006156558286003545
4,29,1.0010964627073387,-0.0026855460328414865,0.00795469163401728
4,30,1.0011024914511968,-0.002911108038661552,0.009847020603670322
4,31,1.0011031901220424,-0.0030541165889980187,0.011796488635600613
4,32,1.0010973443342777,-0.0031058167421231567,0.013764829720384024
4,33,1.0010841539133042,-0.0030636651234074714,0.015715828293219214
4,34,1.0010633185113786,-0.0029309881748565128,0.017617294921708236
4,35,1.001035062501939,-0.002715896713446325,0.01944277963149614
4,36,1.0010000641578818,-0.0024297921034534477,0.021171747349727273
4,37,1.0009593680901685,-0.002085819581535998,0.02278973580102476
4,38,1.0009142453075188,-0.001697501249809732,0.024287350619468597
4,39,1.000866093136266,-0.0012776957619691123,0.02565975540280172
4,40,1.0008163105474446,-0.0008379010043628932,0.026905341689611475
4,41,1.0007662423812016,-0.00038788273320724805,0.028025225509886904
4,42,1.0007170992185497,6.44510531685804e-5,0.029022042396505392
4,43,1.0006699524115559,0.0005129872238768007,0.029899706044965127
4,44,1.0006256908175357,0.0009532376498604046,0.030662436270181493
4,45,1.0005850499282458,0.0013821003811709017,0.03131479144088903
4,46,1.0005485871884394,0.0017976056240054227,0.03186088240198155
4,47,1.0005167265916963,0.0021986555098588434,0.03230460569187324
4,48,1.0004897382620042,0.002584788242992701,0.03264896006104634
4,49,1.0004677862326756,0.002955953926877307,0.03289640366792142
4,50,1.0004509052699202,0.003312323220849356,0.03304820509411594
4,51,1.0004390460723966,0.003654101331630192,0.03310487273154727
4,52,1.0004320481905136,0.0039813727843743376,0.03306550744429335
4,53,1.0004296813416627,0.004293935905761268,0.03292828525028523
4,54,1.0004316172866794,0.004591170494584366,0.032689830192783514
4,55,1.0004374687015247,0.004871879677587485,0.03234576720475879
4,56,1.0004467657282645,0.005134183789633151,0.03189020978306434
4,57,1.0004589952595762,0.0053753802722810995,0.03131643105447295
4,58,1.0004735895443293,0.005591901462063993,0.030616663995441346
4,59,1.0004899679354944,0.005779243244579529,0.029782934237068515
4,60,1.0005075436586894,0.005932068319175888,0.028807474669477275
4,61,1.0005257646347754,0.006044295196227156,0.027683652470621895
4,62,1.0005441379746376,0.006109452546569407,0.02640733387637331
4,63,1.0005622552842584,0.006121019980760452,0.02497752488693595
4,64,1.0005798230235687,0.00607308420620145,0.023398902461928082
4,65,1.000596647914868,0.005960920202164522,0.021681254166911607
4,66,1.0006126588759168,0.005781828763418328,0.01984312116900346
4,67,1.0006278318149,0.005535724865035073,0.01790860211988717
4,68,1.0006422081756763,0.005225789603936065,0.015911887740829272
4,69,1.000655777666829,0.004858641983417476,0.013889980575962777
4,70,1.0006685336957806,0.004444355593785632,0.011888129306310507
4,71,1.0006803464250307,0.003995883933822523,0.009948072373941928
4,72,1.0006910841358283,0.0035282847729277023,0.008115271062883646
4,73,1.0007005223842458,0.003057281569972994,0.006423686228689341
4,74,1.000708567730544,0.0025978918376387476,0.00490571554213322
4,75,1.0007151442106206,0.0021637674364787278,0.0035763419747344106
4,76,1.0007202224725265,0.001767293344920133,0.002448339047832829
4,77,1.0007237006725214,0.0014167930238468782,0.0015160308785017642
4,78,1.000725937786157,0.0011116390919643957,0.0007699326548854834
4,79,1.00072756647217,0.0008439617575942867,0.00018440616111105171
4,80,1.0007288857172612,0.0006119215630698787,-0.0002566641838171258
4,81,1.0007293487094895,0.00043079555388140904,-0.0005727248102187329
4,82,1.0007284627914468,0.0003295765294844055,-0.0007815944876297568
4,83,1.000726520297562,0.0003346787961479086,-0.0009286847497390537
4,84,1.000724349570009,0.00045519687147657184,-0.0010719531510713471
4,85,1.000722742718482,0.0006798920913371395,-0.0012824530227604082
4,86,1.0007218753607434,0.0009727265939206397,-0.0016058853672789829
4,87,1.000720612496286,0.001275656062546238,-0.0020589228997065488
4,88,1.0007195780121445,0.0015164439909927834,-0.002608671376973137
4,89,1.0007170427867689,0.0016134722454991103,-0.0031731762640080066
4,90,1.0007163472437908,0.0015004346650573568,-0.003661959438487907
4,91,1.0007155307243931,0.001090712884233236,-0.00392267787776956
4,92,1.000707591472244,0.00043723278193144463,-0.003943590561325965
4,93,1.0007470143371076,-0.0004258544934829448,-0.0038334895968737933
4,94,1.0007232805820567,-0.0019227394068712415,-0.0030139358827207586
4,95,1.0006851668104975,-0.003219829503783037,-0.0025371351515653126
4,96,1.001010307136732,-0.004562911474466952,-0.002143464272632825
4,97,1.0006098699357489,-0.00990791533503908,0.0024772727503507815
4,98,1.0000790456033517,-0.01439349587578405,0.0029977462964126487
4,99,1.0009185968383942,-0.010698263475291972,-0.00208222197221939
4,100,1.001308059552991,-0.0015168796836366038,-0.0024663332140658417
4,101,0.9998064632099967,0.052094620633954994,-0.0005502888942265471
5,1,1.0009900002175955,7.443514499692412e-5,-7.848780427415512e-6
5,2,1.0009920367894933,0.00020444414961064787,-5.4207207713238006e-5
5,3,1.0009917633973007,0.0003023944077890041,-0.00014271361290089905
5,4,1.0009914352125333,0.0003842500830603213,-0.00026628743730094966
5,5,1.0009909610630408,0.0004625933808469254,-0.00041900085247345684
5,6,1.0009904840039294,0.0005465687269202989,-0.0005961958209668295
5,7,1.0009900981034496,0.0006396767328779826,-0.0007950275839694041
5,8,1.000989657012725,0.0007389791899582592,-0.0010144369695684365
5,9,1.000989101108166,0.0008382056967334146,-0.0012503740807704984
5,10,1.0009884558151745,0.0009286440278956951,-0.0014944520840944886
5,11,1.00098773493047,0.0009987956139471028,-0.0017337743661014508
5,12,1.0009869718442137,0.001035189150601761,-0.001951803098102284
5,13,1.000986232114896,0.001023935426413381,-0.0021287885169534704
5,14,1.0009856169164746,0.0009524303628494798,-0.002243935210916755
5,15,1.000985263652478,0.0008108298868362185,-0.0022769021511075366
5,16,1.0009853395981199,0.0005929051679195523,-0.0022100243692539296
5,17,1.000986029979514,0.0002960452316095214,-0.0020287537794773138
5,18,1.0009875323237993,-7.954914427959479e-5,-0.0017218794355777205
5,19,1.0009900586761546,-0.000532093532796174,-0.0012797668206735978
5,20,1.0009938518935242,-0.0010592309685779572,-0.0006930215830474591
5,21,1.0009991980646251,-0.0016582187501585244,4.937650337587707e-5
5,22,1.0010064145098982,-0.0023249948114449897,0.0009597917788781747
5,23,1.0010157872888024,-0.003052354026024102,0.0020508705854908487
5,24,1.0010274560080652,-0.0038279155519354885,0.003332059031402433
5,25,1.0010412731846727,-0.004632751972402248,0.004806327333150344
5,26,1.001056671362328,-0.005441347942723979,0.006466314543685108
5,27,1.0010725960341837,-0.0062231900803846035,0.00829286675197126
5,28,1.0010875293412245,-0.0069458074752764025,0.010254745326036258
5,29,1.0010996499212639,-0.007578649431193731,0.012311629077968742
5,30,1.0011070649689844,-0.00809683856415609,0.014417718511379539
5,31,1.0011080971434714,-0.008483902910450074,0.016527034808687904
5,32,1.001101493982677,-0.00873292315586846,0.018597054447982445
5,33,1.00108658786548,-0.008846093670532415,0.02059230857716624
5,34,1.001063300133762,-0.008833060275098167,0.0224852076193316
5,35,1.001032118176817,-0.008708642823794178,0.02425687304049715
5,36,1.0009939451538767,-0.008490460615024979,0.02589561364486415
5,37,1.0009500091193464,-0.008196878733750782,0.02739637240049461
5,38,1.0009016802138748,-0.007845435399056772,0.028758457405162505