TITLE="CMs_NON_Orthogonal Re = 10000.0"
VARIABLES = X,Y,Rho,U,V
ZONE
I = 101	J = 101
F=POINT
1,1,1.0009898842266072,2.022843349237226e-6,-2.85976728841255e-6
1,2,1.000990994315394,5.7356010162026646e-6,-1.84378735240192e-5
1,3,1.000990917313553,6.098362455402128e-6,-3.872253110550307e-5
1,4,1.0009911626164574,6.967600328022573e-6,-6.208722546447857e-5
1,5,1.0009914261709458,7.898648930591906e-6,-9.002364821721682e-5
1,6,1.0009916940322618,8.613667655762674e-6,-0.00012360772571855632
1,7,1.0009919892706793,8.854006141533263e-6,-0.00016369517194164291
1,8,1.0009923253858546,8.269988680568075e-6,-0.00021140025348914782
1,9,1.000992695229517,6.32708063085453e-6,-0.00026780649686902226
1,10,1.0009930826773064,2.2705037798506358e-6,-0.00033410011478732227
1,11,1.000993462202244,-4.882427446500656e-6,-0.0004111198185542859
1,12,1.0009938096873692,-1.6343273362765142e-5,-0.0004994001488674248
1,13,1.000994112888562,-3.35350690154702e-5,-0.0005986898677001006
1,14,1.0009943870630729,-5.804829985207368e-5,-0.0007079572856318728
1,15,1.0009946917948622,-9.157490118704299e-5,-0.0008249596327168186
1,16,1.0009951479798807,-0.00013580336834789961,-0.0009463101607456528
1,17,1.0009959470765888,-0.00019230446721435162,-0.00106722490150015
1,18,1.0009973496114597,-0.0002624038237726893,-0.0011817529798277824
1,19,1.0009996672451824,-0.00034707890987811725,-0.001282750461134846
1,20,1.0010032318960387,-0.000446866597080766,-0.00136224435184415
1,21,1.0010083523049502,-0.0005618042898668783,-0.0014115572624270169
1,22,1.0010152653914899,-0.0006913812668112895,-0.0014217306016832548
1,23,1.0010240838833864,-0.0008345184624544097,-0.0013837664956310813
1,24,1.0010347470802703,-0.000989561235535245,-0.0012891476724834748
1,25,1.0010469763288932,-0.0011543079632668157,-0.0011302660367469013
1,26,1.0010602428400797,-0.0013260684174298616,-0.0009011008420682277
1,27,1.0010737532202703,-0.0015017703298892363,-0.0005977932645780349
1,28,1.0010864659282033,-0.0016781004429236549,-0.00021930931193859342
1,29,1.0010971463047689,-0.0018516787826456482,0.00023215560162013243
1,30,1.0011044617834455,-0.002019242456307012,0.0007508965461708889
1,31,1.0011071046686593,-0.002177843113401137,0.0013278020224144226
1,32,1.0011039273596143,-0.002325045503030234,0.001950703936766279
1,33,1.0010940691738874,-0.0024590911954071554,0.002605161850494865
1,34,1.0010770551987331,-0.0025789569816520976,0.0032754216616584985
1,35,1.0010528487576134,-0.0026843021524793004,0.003945491560103901
1,36,1.0010218511748572,-0.002775336739099361,0.004600049792736527
1,37,1.0009848514281157,-0.002852665381847267,0.005225206747355897
1,38,1.0009429404235801,-0.0029171329402437494,0.005808978799992274
1,39,1.000897405937551,-0.0029696958132615723,0.006341570173303025
1,40,1.0008496276623036,-0.0030113192738171375,0.006815410344220747
1,41,1.0008009829755202,-0.003042907900088823,0.007225067196553833
1,42,1.000752774153461,-0.0030652597151253178,0.007567028018024537
1,43,1.000706175383579,-0.003079045576108034,0.007839443874745961
1,44,1.0006622031288763,-0.0030848023496414384,0.008041844896199885
1,45,1.000621699972684,-0.0030829411218848248,0.008174869483304485
1,46,1.000585335473431,-0.003073760125110862,0.00824003283844311
1,47,1.0005536097840162,-0.0030574652987790793,0.008239513319622709
1,48,1.0005268689548783,-0.0030341898403729015,0.008176022926505124
1,49,1.0005053133890578,-0.0030040177596008023,0.008052661185689867
1,50,1.0004890173438392,-0.002967003248214353,0.007872896264434152
1,51,1.000477933607555,-0.0029231935820466654,0.007640460861401581
1,52,1.000471913857899,-0.002872644833610569,0.0073594399005620995
1,53,1.0004707061526588,-0.0028154439195110636,0.007034159698245642
1,54,1.0004739779897223,-0.0027517169416000145,0.006669384071840431
1,55,1.0004813061202165,-0.002681652897560209,0.006270120946496404
1,56,1.0004922074717624,-0.002605496993738364,0.005841952732931024
1,57,1.0005061217120002,-0.002523583581299351,0.005390636895707864
1,58,1.0005224568786109,-0.0024362980006117523,0.004922654302656434
1,59,1.0005405642407221,-0.002344138623201443,0.004444390168148618
1,60,1.0005598051643119,-0.002247613607318399,0.003963116290885696
1,61,1.000579515334326,-0.002147378673952791,0.0034853652678021093
1,62,1.0005990961400872,-0.002044004047762273,0.003018844654341783
1,63,1.000617961484922,-0.0019382807200810448,0.0025692850628109146
1,64,1.0006356516470178,-0.001830744768473337,0.0021443123179880883
1,65,1.0006517538624786,-0.0017222995955464102,0.0017474719203730562
1,66,1.0006660266598897,-0.0016133603396840022,0.0013858705695392983
1,67,1.0006782893396946,-0.0015049005059149508,0.0010593810693674075
1,68,1.000688549990551,-0.001397194581660772,0.0007744075129906639
1,69,1.0006968598297212,-0.001291228558205298,0.0005262047045356475
1,70,1.0007034095508807,-0.0011872295179024771,0.00032060539365079936
1,71,1.0007084050011024,-0.0010860255868426422,0.00014844912120385282
1,72,1.0007121887487278,-0.0009878743412014548,1.5090598678836975e-5
1,73,1.0007150057548369,-0.0008936261684118565,-9.169571112995491e-5
1,74,1.0007170376928027,-0.0008035546210931095,-0.0001660447629105183
1,75,1.0007185125173539,-0.000718011920055555,-0.00022179761175096377
1,76,1.0007198597553963,-0.0006371899672509439,-0.0002530261782912279
1,77,1.0007212394076719,-0.0005619600978913558,-0.0002738698596252027
1,78,1.000722421683616,-0.0004928956751851091,-0.00027533609158428984
1,79,1.00072314373077,-0.0004301689981960836,-0.0002694018774991775
1,80,1.0007235979045297,-0.0003729907157779499,-0.0002460550474608624
1,81,1.0007241785236658,-0.00032058306408129115,-0.000220166456039563
1,82,1.0007252115180283,-0.00027191604513622416,-0.00018404621836716346
1,83,1.000726704981125,-0.00022647031076885636,-0.00015537827957606433
1,84,1.0007285644364912,-0.0001835828357256511,-0.00012652660455048575
1,85,1.0007306765441806,-0.00014362195978376212,-0.00011624238343543403
1,86,1.0007327934150414,-0.00010667189003585285,-0.00011542869382550602
1,87,1.0007349536926524,-7.492372557693485e-5,-0.00014233996265683056
1,88,1.00073662217408,-4.98741159816323e-5,-0.00018065891121667556
1,89,1.0007378355983902,-3.335940895935623e-5,-0.0002408307927565232
1,90,1.0007384784677604,-2.9219464619493343e-5,-0.0002907377692050393
1,91,1.0007384495042966,-3.242198257992529e-5,-0.0003270499497433478
1,92,1.0007476485380447,-6.308202451202044e-5,-0.00029364483628521287
1,93,1.0007515329227425,-0.00012354824993842878,-0.00012455698286802032
1,94,1.0007531428886132,-0.00020467593330134897,0.000265689692222343
1,95,1.0007531892068973,-0.0002935809329824838,0.0009237972312262874
1,96,1.000813799937547,-0.00026520795481017867,0.0017024358310297764
1,97,1.0010010475562117,-0.0010233596921610571,0.0033940265416892434
1,98,1.0003136491830646,-0.0010877227058746972,0.006585420972840754
1,99,1.0007782845899622,0.0005663132228158848,0.0076577257435026845
1,100,1.001955075609261,-0.00768911315296304,0.01641052543637497
1,101,0.9965392715788893,0.02652473528324037,0.01399577911620543
2,1,1.0009885667729972,1.8691628792317623e-5,-5.923738913953981e-6
2,2,1.0009896500001416,4.063618200959267e-5,-3.74418004501972e-5
2,3,1.0009890453644936,4.883627473336074e-5,-8.810514703133091e-5
2,4,1.000988845927686,5.807487157068058e-5,-0.00015022159881970232
2,5,1.0009885918332926,7.069332284734771e-5,-0.0002252684539210711
2,6,1.000988213233855,8.590042638953718e-5,-0.0003165147829736367
2,7,1.0009877530052087,0.00010405956496530302,-0.0004263933585491566
2,8,1.0009871907491787,0.00012586347148652838,-0.0005577294161621007
2,9,1.000986503031413,0.00015189076834446524,-0.0007133126395848158
2,10,1.0009856662267271,0.00018247552143973254,-0.0008956801438158084
2,11,1.0009846723866558,0.00021762143288753697,-0.0011062324623676793
2,12,1.0009835423002882,0.0002569672741081524,-0.001344814904066848
2,13,1.0009823449356323,0.0002997742552390262,-0.0016088539127021191
2,14,1.0009812142799162,0.00034496039055969386,-0.0018930858407719925
2,15,1.0009803652505471,0.00039118370621601413,-0.0021890344752603483
2,16,1.0009800970616796,0.000436969520618029,-0.002485210725421652
2,17,1.0009807852121033,0.0004808548371878951,-0.002767198291535008
2,18,1.0009828537657555,0.000521502724496834,-0.0030183957718585507
2,19,1.0009867377027846,0.0005577603242103228,-0.0032205287977433925
2,20,1.0009928343334749,0.0005886597720568889,-0.003354541987847839
2,21,1.0010014565631458,0.0006134014736412531,-0.0034011086000012656
2,22,1.001012785174951,0.000631371524375104,-0.003341397348064499
2,23,1.0010268282269685,0.0006422449421086409,-0.0031575734829750726
2,24,1.001043380512608,0.0006461867636798276,-0.0028336928153482933
2,25,1.001061989948395,0.0006441173386407557,-0.0023565496352687767
2,26,1.001081928514881,0.0006379539595256196,-0.0017169364607896064
2,27,1.001102186003495,0.0006307283361174114,-0.0009107440129573041
2,28,1.001121493056317,0.000626503743381564,5.989924573674728e-5
2,29,1.0011383884149205,0.0006300764713713504,0.001186048417779849
2,30,1.0011513207098417,0.0006464897713368089,0.0024517540946885786
2,31,1.0011587858924573,0.000680429235688047,0.003834696719021269
2,32,1.0011594755914115,0.0007356069986743798,0.005307334294950226
2,33,1.0011524221476156,0.000814274724190656,0.0068387078349126055
2,34,1.0011371016191744,0.0009169768387156836,0.00839637781176316
2,35,1.0011134871221412,0.001042580828058852,0.009948423511778064
2,36,1.0010820330607695,0.0011885371894036754,0.011465029656883815
2,37,1.0010436130992941,0.0013512794893219297,0.012919715610374086
2,38,1.0009994136104552,0.0015266651487481483,0.014289990553318567
2,39,1.000950821272833,0.0017103807812987966,0.015557632821328054
2,40,1.00089930429677,0.0018982630221576343,0.01670855977525954
2,41,1.0008463211522158,0.0020865199197072676,0.01773248784364899
2,42,1.0007932403493716,0.0022718543892034687,0.018622434435484926
2,43,1.0007412975758057,0.002451509735974158,0.019374148122256216
2,44,1.00069156001831,0.002623253280865436,0.019985590626597955
2,45,1.0006449242729127,0.002785324327975331,0.020456376914897437
2,46,1.0006021087579615,0.0029363554268616934,0.020787430978690187
2,47,1.0005636745857736,0.0030752906390508006,0.020980516927469536
2,48,1.0005300275275024,0.0032012958156608547,0.02103815364960206
2,49,1.0005014481676007,0.003313685564909137,0.02096321364194974
2,50,1.0004780905914625,0.0034118458597080046,0.020759141572632686
2,51,1.0004600157868175,0.0034951869624087273,0.02042953671941903
2,52,1.0004471797106729,0.0035630855609712253,0.01997873094174665
2,53,1.0004394703269577,0.0036148728833902107,0.019411221642615946
2,54,1.000436680488791,0.0036497981091400855,0.018732704194291686
2,55,1.0004385537523985,0.0036670615746710804,0.017949155864320582
2,56,1.0004447378585026,0.0036658003965682113,0.01706847345561957
2,57,1.0004548485456095,0.0036451791917409574,0.016098903938863672
2,58,1.0004683982213993,0.003604395865211484,0.015051507891610767
2,59,1.0004848911924742,0.0035428387939362136,0.013937482399439507
2,60,1.0005037199847049,0.003460100233421136,0.012771765981964944
2,61,1.0005243092144367,0.003356192220890823,0.011568618383173298
2,62,1.0005459690863172,0.003231535136872135,0.010346830693761277
2,63,1.0005681062384169,0.003087195392666917,0.009122758447377033
2,64,1.0005900202208728,0.002924802133497789,0.007917834869437946
2,65,1.0006111945702756,0.0027467304697070946,0.006748162013984004
2,66,1.0006310197000992,0.002555905879040298,0.005635338246545202
2,67,1.0006491639772828,0.002355884949410062,0.004591768008362568
2,68,1.0006652087150059,0.0021505274120759547,0.003636024206763437
2,69,1.0006790874346498,0.0019439012419722379,0.0027733467078411332
2,70,1.0006906286434332,0.0017399538863380475,0.002016573601024964
2,71,1.0007000221469509,0.0015425221056821455,0.0013618056579699485
2,72,1.000707314020789,0.001354778684935541,0.0008150565686229073
2,73,1.000712936299247,0.0011789178826041614,0.0003636359746584864
2,74,1.00071702953772,0.001016461274814888,8.39369350231227e-6
2,75,1.0007199360620396,0.000869184032815076,-0.0002690097912168307
2,76,1.0007218577001027,0.0007379653323827665,-0.0004710922949475651
2,77,1.0007234960914806,0.000620994820846858,-0.000620061748370517
2,78,1.000724972692836,0.0005147554280408789,-0.0007161456999545979
2,79,1.0007261719289264,0.00041784166031411254,-0.0007757979503670467
2,80,1.0007265806591787,0.0003326404471263889,-0.000793884411997481
2,81,1.000726433339548,0.000263122397508665,-0.0007913493454687837
2,82,1.0007259373638473,0.0002122917095921339,-0.0007736566400144553
2,83,1.0007255913592457,0.00018132875529406692,-0.0007745949635075876
2,84,1.00072511570073,0.00016990019788634008,-0.000806131933660418
2,85,1.0007244925995742,0.00017765953674825333,-0.0009045056094750221
2,86,1.0007232879177321,0.0002019192308926105,-0.001077356916992887
2,87,1.0007211508174032,0.00023684989488177526,-0.0013510095867169181
2,88,1.0007184430666665,0.00027035582500838616,-0.0017121354243500551
2,89,1.0007146707695922,0.00028559159977346264,-0.0021537241315965528
2,90,1.000711580095227,0.0002672882987163131,-0.0026265482261195955
2,91,1.0007122225684106,0.0001809753936576188,-0.0030700834336052046
2,92,1.000717464775049,-4.180390265844829e-6,-0.0033803191851466234
2,93,1.0007439689608786,-0.00037697321240335127,-0.0034398824956309243
2,94,1.0007551795469227,-0.0008582965521962424,-0.0030580987093682273
2,95,1.0008151109859322,-0.0012093509200538372,-0.0023840950953955263
2,96,1.0008815652105203,-0.0023448944746878053,-0.000608268601090425
2,97,1.000783581735052,-0.003826773164177906,0.0018683760327727914
2,98,1.0015409802337252,-0.004592407147264957,0.0039007010800447017
2,99,1.000442542779332,-0.01082553832746809,0.016156854640336643
2,100,0.999651405353131,-0.012213044180645729,0.02179874175397409
2,101,1.0038020793916935,0.05153174881321615,0.005626745245640187
3,1,1.000988609182877,3.424049939660917e-5,-5.809564630770697e-6
3,2,1.0009902989456523,8.692596460004395e-5,-4.1189976548834285e-5
3,3,1.0009897917473292,0.00011540513252040715,-0.00010752738605830337
3,4,1.0009892928320834,0.00013963547969214558,-0.00019779553619668475
3,5,1.0009889547654605,0.00016869900717535186,-0.0003081127589562784
3,6,1.000988568021628,0.0002028836401779718,-0.00044103459586863474
3,7,1.0009880601533874,0.00024148031815566774,-0.0006003164567574188
3,8,1.0009874431775483,0.000284381248854382,-0.0007890706657636652
3,9,1.000986688257135,0.0003306530269858216,-0.001009708705301764
3,10,1.0009857790025884,0.0003779588035116108,-0.0012634320350437263
3,11,1.0009847236048293,0.00042245814741547947,-0.0015489076662966838
3,12,1.0009835669577007,0.0004588598206307566,-0.0018616485667384895
3,13,1.0009824067712698,0.0004806716727661543,-0.0021930967872112153
3,14,1.000981405453063,0.0004806270144900218,-0.0025307012163376954
3,15,1.000980794764835,0.00045128487799036675,-0.002857980310153307
3,16,1.00098086850101,0.0003857197024026536,-0.0031556115635254073
3,17,1.000981961884345,0.0002781512465375392,-0.0034023856869597573
3,18,1.0009844215703356,0.00012436594723005517,-0.0035767402921358347
3,19,1.0009885707225314,-7.813489775096169e-5,-0.003657653768717784
3,20,1.0009946781216257,-0.0003301969145719516,-0.0036256082728526547
3,21,1.0010029328606902,-0.0006311337692496144,-0.003462745170522091
3,22,1.001013426100387,-0.000978737762769112,-0.0031532024453094156
3,23,1.0010261311840258,-0.0013690809677511257,-0.0026831178464401645
3,24,1.0010408758661322,-0.0017961321333776954,-0.002041309218263748
3,25,1.0010573007994614,-0.0022513546453401725,-0.0012200127190391446
3,26,1.0010748134292755,-0.0027235208574206203,-0.00021627550274167716
3,27,1.0010925541877715,-0.0031989427516609437,0.0009669435652965213
3,28,1.0011093930771566,-0.0036621893958386164,0.0023196464006078736
3,29,1.0011239718466365,-0.004097238058405267,0.003824595078318039
3,30,1.0011347987366634,-0.004488901484697158,0.005457632563500511
3,31,1.0011403959520282,-0.004824290494186994,0.007189175543832321
3,32,1.0011394703680077,-0.005094014860105278,0.00898607851804766
3,33,1.001131077096667,-0.005292876629289342,0.010814111084215268
3,34,1.0011147308356794,-0.0054199419201976465,0.012640035827054082
3,35,1.0010904555950648,-0.005478053050274351,0.01443356333359621
3,36,1.0010587568354292,-0.005472956378195699,0.016168399318742494
3,37,1.0010205470620297,-0.005412272810432122,0.017822978506599932
3,38,1.0009770285291977,-0.005304500790512693,0.019380357461822765
3,39,1.0009295782465786,-0.005158186892971745,0.02082803802628496
3,40,1.0008796287996358,-0.00498131640749014,0.022157236222667326
3,41,1.0008285832469512,-0.004780933532386244,0.02336236237698319
3,42,1.000777738984845,-0.004562952506675022,0.02444016006457664
3,43,1.0007282521578589,-0.004332123664347791,0.025389212303818486
3,44,1.000681105371168,-0.004092097939133921,0.02620920214829337
3,45,1.000637109626039,-0.0038455625416737825,0.026900583679066132
3,46,1.0005968987957128,-0.0035944022489846784,0.027464036664896364
3,47,1.0005609500437418,-0.0033398828585523522,0.027900306026658533
3,48,1.0005295890314112,-0.003082821461334296,0.0282098472075377
3,49,1.0005030148290674,-0.002823762753859995,0.028392786354247378
3,50,1.0004813071559977,-0.0025631254501932844,0.028448750496129802
3,51,1.000464448605978,-0.002301357706983768,0.02837689112977336
3,52,1.0004523318544785,-0.0020390525825790813,0.028175931433534192
3,53,1.0004447765141034,-0.0017770826158133041,0.027844193278193555
3,54,1.0004415383603253,-0.001516679217272026,0.02737995388395012
3,55,1.000442319740262,-0.0012595409002511208,0.026781393651540655
3,56,1.000446784601447,-0.0010078584839785239,0.02604742601568071
3,57,1.0004545604878097,-0.0007643753183142345,0.025177413343695394
3,58,1.0004652628696031,-0.000532322084150692,0.024172703254978726
3,59,1.0004784841600203,-0.00031539229937087396,0.023035810800655667
3,60,1.0004938291925598,-0.00011754241018354665,0.021772944215792477
3,61,1.0005108842669121,5.7148720291802984e-5,0.02039210439639583
3,62,1.0005292644555173,0.00020483368324393736,0.018906904080406076
3,63,1.0005485577039583,0.0003221382137960457,0.017332723216113507
3,64,1.0005683854824547,0.00040661616904558314,0.01569215144268184
3,65,1.0005883261824875,0.00045698149947439134,0.014008099691940348
3,66,1.0006079950783375,0.00047351222084038346,0.012311301546498411
3,67,1.000626964288516,0.00045810493882044703,0.010629345238373604
3,68,1.0006448560764685,0.0004144046528871024,0.008996947811961954
3,69,1.0006612899604104,0.0003474881467335118,0.007440382890067436
3,70,1.0006759778787386,0.00026364569519929035,0.005991465691455938
3,71,1.0006886942227269,0.00016989471419795452,0.004667819143438637
3,72,1.0006993044277452,7.336359839197696e-5,0.003491571913823049
3,73,1.000707819434412,-1.9757626749432807e-5,0.002466206254965272
3,74,1.0007143917115524,-0.00010451766222359524,0.0016002095816466733
3,75,1.000719234859218,-0.0001762117453601995,0.0008825149982724618
3,76,1.0007224593226376,-0.00023067834479579636,0.0003102644679008666
3,77,1.000724462469802,-0.0002680216505007291,-0.00013955584437029672
3,78,1.0007258418402294,-0.0002943560651845182,-0.0004784429939945007
3,79,1.0007269528786928,-0.000315608146659541,-0.0007307580493540957
3,80,1.0007274013518372,-0.000328904779709941,-0.0009004998683399723
3,81,1.000726752047495,-0.00032196392430666135,-0.0010093886496427879
3,82,1.0007250468884459,-0.0002799855396480571,-0.0010741592671249932
3,83,1.0007228236781152,-0.00019290954029848903,-0.001142137600197303
3,84,1.000720498420937,-5.8177020011325654e-5,-0.0012530424262408078
3,85,1.000718157822505,0.00012015853334513463,-0.0014618831995500267
3,86,1.0007154931126276,0.00033019603180076075,-0.0017973634274653857
3,87,1.000712392283396,0.0005459398091877922,-0.002283995579298261
3,88,1.000707728447418,0.0007333220510612564,-0.0028996120617375224
3,89,1.0007034242236257,0.0008508249405582867,-0.0036143179105789162
3,90,1.000699192907306,0.0008460762197647683,-0.004331016981139826
3,91,1.000697143857917,0.000683822221085948,-0.004970394970841557
3,92,1.000701770354911,0.00026896657252772574,-0.005384599990495649
3,93,1.0006962578633944,-0.0003809511731833063,-0.0055226340505991145
3,94,1.0007539249780764,-0.001175579501154,-0.005511502907062812
3,95,1.000762005039635,-0.0025398185461127046,-0.004508949508631711
3,96,1.000632803099418,-0.003699887397165639,-0.003433879174701543
3,97,1.0010868234365509,-0.005377836916668362,-0.0029953494651675564
3,98,1.0007123487701626,-0.012456638251071139,0.003557694044280434
3,99,0.9995457990482048,-0.01698327532137501,0.005928158121217702
3,100,1.0006116156917875,-0.002737225921516338,-0.0006262973799471235
3,101,1.000531883662947,0.05519118945527815,-0.0019251225683492904
4,1,1.0009882469780027,5.520398509672394e-5,-7.073348316638673e-6
4,2,1.0009901521274411,0.00014467856559445175,-4.841136459739549e-5
4,3,1.0009898896260236,0.00020556979072339728,-0.00012710820233176933
4,4,1.0009894215453714,0.0002562176421399035,-0.00023823042664675417
4,5,1.0009889216615904,0.00030958218496632603,-0.00037610186221875223
4,6,1.0009885574813961,0.00037171517287312575,-0.0005384723198847183
4,7,1.0009881577624462,0.0004432697534216924,-0.000727530589832153
4,8,1.000987650220122,0.000523510231769412,-0.0009455619562626605
4,9,1.0009870562691692,0.0006109636095734854,-0.0011921148301924213
4,10,1.0009863804891854,0.0007021771177345425,-0.0014641145290853908
4,11,1.0009856518058857,0.0007915016931767063,-0.0017546307674124809
4,12,1.0009849353584868,0.0008715134067407818,-0.002052573662531536
4,13,1.0009843367775806,0.0009337443584542354,-0.002342331039164409
4,14,1.0009840077497019,0.0009696719882289475,-0.00260483134821049
4,15,1.0009841396935828,0.000971777634716569,-0.002818591421536843
4,16,1.0009849497903256,0.0009344386721258115,-0.0029618065145750184
4,17,1.000986657966078,0.0008543908772564852,-0.0030137178341292053
4,18,1.000989464307703,0.0007306196732766369,-0.002956107493594941
4,19,1.0009935307072884,0.0005637683544589879,-0.0027733804787898253
4,20,1.0009989758032662,0.0003553759441982815,-0.0024524883417877635
4,21,1.0010058791309884,0.00010735085335689697,-0.001981841311354642
4,22,1.0010142877311239,-0.00017798983462284445,-0.001350928408192717
4,23,1.0010242056420922,-0.000497229276555912,-0.0005500305958224445
4,24,1.0010355543816536,-0.0008447202592848224,0.00042857645348267845
4,25,1.0010481045508035,-0.001211470743479639,0.0015891515173332153
4,26,1.0010613960781805,-0.0015845283533920912,0.002930099843420198
4,27,1.001074675192664,-0.0019472018501282223,0.004442363313700201
4,28,1.0010868707965863,-0.0022802111126907017,0.00610809846633218
4,29,1.0010966446151608,-0.002563637222539094,0.007901173102414696
4,30,1.0011025143420236,-0.0027792880096526008,0.00978848474137866
4,31,1.0011030452430496,-0.0029129446769440414,0.011732915780950854
4,32,1.0010970439970948,-0.002955950366549949,0.013696181595901148
4,33,1.0010837305448466,-0.0029058410646948885,0.01564208480832063
4,34,1.0010628211666142,-0.0027659931871910864,0.017538483994500385
4,35,1.0010345513246686,-0.002544534426850522,0.01935898830973607
4,36,1.0009996044459677,-0.0022528529241437867,0.021083124633733005
4,37,1.0009590243253754,-0.0019040579858866278,0.022696481602272885
4,38,1.0009140765691311,-0.0015116223337827903,0.02418970447218112
4,39,1.00086614939124,-0.0010883506338864365,0.025557978579629107
4,40,1.0008166308186093,-0.0006456894344649301,0.0267997051408581
4,41,1.0007668535636847,-0.0001933608261880258,0.027915994936736153
4,42,1.0007180164728924,0.00026076021047716875,0.028909471265312396
4,43,1.0006711795414276,0.0007105817380150622,0.029784026570676962
4,44,1.0006272217960803,0.0011516250636718142,0.030543858141945376
4,45,1.000586869827682,0.001580786824193199,0.031193498471977613
4,46,1.0005506740223618,0.001996086412272589,0.031737036032513516
4,47,1.0005190522111935,0.002396407361595143,0.03217834681725653
4,48,1.000492270148965,0.0027812634842894956,0.032520416933071415
4,49,1.0004704881806539,0.0031505765182966356,0.03276569944778685
4,50,1.0004537390925383,0.003504487320267457,0.03291547105679781
4,51,1.0004419721196878,0.0038431720008692055,0.03297026317542005
4,52,1.0004350270926958,0.004166690292445395,0.03292922019535494
4,53,1.0004326744734955,0.004474822828404813,0.03279058559814574
4,54,1.0004345886681678,0.00476694407452988,0.03255108058699437
4,55,1.000440385424945,0.005041867665894051,0.032206459253304245
4,56,1.0004495999853753,0.005297747298377243,0.03175100222403278
4,57,1.0004617244856955,0.005531939776598828,0.03117818132525187
4,58,1.000476198251446,0.005740970219121856,0.030480466631305637
4,59,1.000492446973039,0.0059204605687368985,0.029650129814241647
4,60,1.0005098912688781,0.00606523709034437,0.028679671002503102
4,61,1.0005279840868349,0.0061694109216897915,0.027562672437482894
4,62,1.0005462374480558,0.00622672827232014,0.026295197565499112
4,63,1.0005642437722846,0.006230889966743116,0.024876291808834272
4,64,1.0005817097931662,0.006176192458990786,0.023310610783860975
4,65,1.0005984380433448,0.006058076796265268,0.02160763639032099
4,66,1.0006143545895434,0.0058739465745721395,0.01978555032819815
4,67,1.0006294301693042,0.005623727646242931,0.01786771751293649
4,68,1.0006437061767155,0.005310513451873761,0.01588766893317078
4,69,1.0006571723520294,0.004940732220552867,0.013881377523762525
4,70,1.000669829725845,0.004524188226417451,0.011893409890074017
4,71,1.000681555489126,0.0040735153394365715,0.00996453289126137
4,72,1.0006922305322825,0.0036034517080312098,0.008139913893154618
4,73,1.0007016368433446,0.0031294535148227347,0.00645299371593643
4,74,1.0007096857748925,0.0026663626814865085,0.004936572686247724
4,75,1.0007163001853494,0.0022277186949700677,0.003605671244547384
4,76,1.000721457702792,0.0018258699985191876,0.0024739892593681127
4,77,1.000725047626913,0.0014693315877654402,0.0015362943630204864
4,78,1.0007274025505557,0.0011578910142788412,0.0007844577742957165
4,79,1.0007291440222237,0.000883830509635976,0.00019315466563609045
4,80,1.000730606993429,0.0006448124726699003,-0.0002530459467968579
4,81,1.000731273216721,0.0004553420172806741,-0.0005736265980714142
4,82,1.0007306262189735,0.00034412338056255754,-0.0007849491929699972
4,83,1.0007289006063804,0.0003381169096107501,-0.0009312893144382735
4,84,1.000726895341407,0.00044760069119207166,-0.0010690385876563338
4,85,1.0007254203227103,0.0006629785069563398,-0.0012696981687174771
4,86,1.0007247115396538,0.0009500446192125591,-0.0015801796667449842
4,87,1.000723667368642,0.001251771195576103,-0.002020255847363415
4,88,1.0007229098083046,0.0014954229112297023,-0.002559487843720059
4,89,1.0007206671383129,0.0015972421745032023,-0.0031178574172863204
4,90,1.0007201870064022,0.001487951208934697,-0.0036041533841151266
4,91,1.0007195147965833,0.0010790090505006162,-0.003864551477344449
4,92,1.0007115930659018,0.00042417048855117854,-0.0038841338744937722
4,93,1.0007509296597894,-0.0004367879088201952,-0.0037728817403048665
4,94,1.0007272265474256,-0.001922892313743499,-0.002953362325221467
4,95,1.0006888571700083,-0.003197279374248435,-0.0024797295749067415
4,96,1.0010136789298283,-0.004506144238003555,-0.0021007939425531233
4,97,1.0006132117182993,-0.009837279970357951,0.002508892979311955
4,98,1.0000842095594225,-0.014344377075972905,0.00302122195570064
4,99,1.0009219491554118,-0.010679608093543102,-0.0020791987496867653
4,100,1.0013103198123467,-0.001526242721797202,-0.002471339443962586
4,101,0.99981023363552,0.05208662491771263,-0.0005509620149002064
5,1,1.0009879693764834,7.637214834905313e-5,-7.998517920663188e-6
5,2,1.0009900556194054,0.00020835295300876357,-5.5097533001926955e-5
5,3,1.0009897662423055,0.0003057037795895932,-0.00014439945644233737
5,4,1.000989444972374,0.00038660769640981254,-0.0002685051808134115
5,5,1.0009889896931452,0.0004643515897950891,-0.0004215568145981911
5,6,1.0009885399061826,0.0005478682857286295,-0.0005989749922986067
5,7,1.0009881894161197,0.0006403998432374351,-0.0007979635489459148
5,8,1.0009877886396388,0.0007389313448586621,-0.001017519213416467
5,9,1.0009872802939697,0.0008372314319907691,-0.0012536302648116595
5,10,1.0009866930511424,0.0009265868522583773,-0.0014979542639337851
5,11,1.0009860409347473,0.0009953950991792128,-0.001737670489191179
5,12,1.0009853572617389,0.0010300200104691706,-0.001956312982745312
5,13,1.0009847083932526,0.001016411663519924,-0.002134195200140407
5,14,1.000984197207999,0.0009418797981640723,-0.0022505960960819897
5,15,1.0009839638460583,0.0007966320378686042,-0.0022852965407868376
5,16,1.0009841788796028,0.0005746440429056195,-0.002220806339151755
5,17,1.000985030412427,0.00027360119493360013,-0.0020427784430524813
5,18,1.0009867173619478,-0.00010602541616316625,-0.0017401499078192294
5,19,1.000989451474754,-0.000562324091003896,-0.001303296248180929
5,20,1.0009934742727238,-0.001093007414054333,-0.0007226303330971761
5,21,1.0009990702342633,-0.0016955599918252143,1.3248390091900594e-5
5,22,1.0010065544912135,-0.002366193414422998,0.0009171903962587264
5,23,1.0010162088260848,-0.003097897242783903,0.0020022978973564766
5,24,1.001028164879163,-0.0038783291049577233,0.003278329880551789
5,25,1.0010422633009612,-0.0046884447019920564,0.004748361539798894
5,26,1.0010579227382088,-0.005502521525441025,0.006404947962287267
5,27,1.001074075643637,-0.006289836713242109,0.008228721382585808
5,28,1.0010891950705072,-0.007017778893122999,0.010188189332197166
5,29,1.001101456388798,-0.007655758965963576,0.012242801989796926
5,30,1.0011089701155846,-0.00817895664615748,0.014346606633472406
5,31,1.0011100674981046,-0.008571018273994358,0.01645355047688586
5,32,1.0011035081001376,-0.00882516018862165,0.01852111018008222
5,33,1.0010886368160916,-0.008943691394322367,0.020513858217074972
5,34,1.0010653862874535,-0.008936327591605005,0.02240427058947551
5,35,1.001034251949001,-0.008817905470970486,0.024173529388239124
5,36,1.0009961418017554,-0.008606012563949685,0.025809996810220167
5,37,1.0009522848576629,-0.008318944951598593,0.027308646500781623