TITLE="BGK Re = 2600.0"
VARIABLES = X,Y,Rho,U,V
ZONE
I = 129	J = 129
F=POINT
1,1,NaN,NaN,NaN
1,2,NaN,NaN,NaN
1,3,NaN,NaN,NaN
1,4,NaN,NaN,NaN
1,5,NaN,NaN,NaN
1,6,NaN,NaN,NaN
1,7,NaN,NaN,NaN
1,8,NaN,NaN,NaN
1,9,NaN,NaN,NaN
1,10,NaN,NaN,NaN
1,11,NaN,NaN,NaN
1,12,NaN,NaN,NaN
1,13,NaN,NaN,NaN
1,14,NaN,NaN,NaN
1,15,NaN,NaN,NaN
1,16,NaN,NaN,NaN
1,17,NaN,NaN,NaN
1,18,NaN,NaN,NaN
1,19,NaN,NaN,NaN
1,20,NaN,NaN,NaN
1,21,NaN,NaN,NaN
1,22,NaN,NaN,NaN
1,23,NaN,NaN,NaN
1,24,NaN,NaN,NaN
1,25,NaN,NaN,NaN
1,26,NaN,NaN,NaN
1,27,NaN,NaN,NaN
1,28,NaN,NaN,NaN
1,29,NaN,NaN,NaN
1,30,NaN,NaN,NaN
1,31,NaN,NaN,NaN
1,32,NaN,NaN,NaN
1,33,NaN,NaN,NaN
1,34,NaN,NaN,NaN
1,35,NaN,NaN,NaN
1,36,NaN,NaN,NaN
1,37,NaN,NaN,NaN
1,38,NaN,NaN,NaN
1,39,NaN,NaN,NaN
1,40,NaN,NaN,NaN
1,41,NaN,NaN,NaN
1,42,NaN,NaN,NaN
1,43,NaN,NaN,NaN
1,44,NaN,NaN,NaN
1,45,NaN,NaN,NaN
1,46,NaN,NaN,NaN
1,47,NaN,NaN,NaN
1,48,NaN,NaN,NaN
1,49,NaN,NaN,NaN
1,50,NaN,NaN,NaN
1,51,NaN,NaN,NaN
1,52,NaN,NaN,NaN
1,53,NaN,NaN,NaN
1,54,NaN,NaN,NaN
1,55,NaN,NaN,NaN
1,56,NaN,NaN,NaN
1,57,NaN,NaN,NaN
1,58,NaN,NaN,NaN
1,59,NaN,NaN,NaN
1,60,NaN,NaN,NaN
1,61,NaN,NaN,NaN
1,62,NaN,NaN,NaN
1,63,NaN,NaN,NaN
1,64,NaN,NaN,NaN
1,65,NaN,NaN,NaN
1,66,NaN,NaN,NaN
1,67,NaN,NaN,NaN
1,68,NaN,NaN,NaN
1,69,NaN,NaN,NaN
1,70,NaN,NaN,NaN
1,71,NaN,NaN,NaN
1,72,NaN,NaN,NaN
1,73,NaN,NaN,NaN
1,74,NaN,NaN,NaN
1,75,NaN,NaN,NaN
1,76,NaN,NaN,NaN
1,77,NaN,NaN,NaN
1,78,NaN,NaN,NaN
1,79,NaN,NaN,NaN
1,80,NaN,NaN,NaN
1,81,NaN,NaN,NaN
1,82,NaN,NaN,NaN
1,83,NaN,NaN,NaN
1,84,NaN,NaN,NaN
1,85,NaN,NaN,NaN
1,86,NaN,NaN,NaN
1,87,NaN,NaN,NaN
1,88,NaN,NaN,NaN
1,89,NaN,NaN,NaN
1,90,NaN,NaN,NaN
1,91,NaN,NaN,NaN
1,92,NaN,NaN,NaN
1,93,NaN,NaN,NaN
1,94,NaN,NaN,NaN
1,95,NaN,NaN,NaN
1,96,NaN,NaN,NaN
1,97,NaN,NaN,NaN
1,98,NaN,NaN,NaN
1,99,NaN,NaN,NaN
1,100,NaN,NaN,NaN
1,101,NaN,NaN,NaN
1,102,NaN,NaN,NaN
1,103,NaN,NaN,NaN
1,104,NaN,NaN,NaN
1,105,NaN,NaN,NaN
1,106,NaN,NaN,NaN
1,107,NaN,NaN,NaN
1,108,NaN,NaN,NaN
1,109,NaN,NaN,NaN
1,110,NaN,NaN,NaN
1,111,NaN,NaN,NaN
1,112,NaN,NaN,NaN
1,113,NaN,NaN,NaN
1,114,NaN,NaN,NaN
1,115,NaN,NaN,NaN
1,116,NaN,NaN,NaN
1,117,NaN,NaN,NaN
1,118,NaN,NaN,NaN
1,119,NaN,NaN,NaN
1,120,NaN,NaN,NaN
1,121,NaN,NaN,NaN
1,122,NaN,NaN,NaN
1,123,NaN,NaN,NaN
1,124,NaN,NaN,NaN
1,125,NaN,NaN,NaN
1,126,NaN,NaN,NaN
1,127,NaN,NaN,NaN
1,128,NaN,NaN,NaN
1,129,NaN,NaN,NaN
2,1,NaN,NaN,NaN
2,2,NaN,NaN,NaN
2,3,NaN,NaN,NaN
2,4,NaN,NaN,NaN
2,5,NaN,NaN,NaN
2,6,NaN,NaN,NaN
2,7,NaN,NaN,NaN
2,8,NaN,NaN,NaN
2,9,NaN,NaN,NaN
2,10,NaN,NaN,NaN
2,11,NaN,NaN,NaN
2,12,NaN,NaN,NaN
2,13,NaN,NaN,NaN
2,14,NaN,NaN,NaN
2,15,NaN,NaN,NaN
2,16,NaN,NaN,NaN
2,17,NaN,NaN,NaN
2,18,NaN,NaN,NaN
2,19,NaN,NaN,NaN
2,20,NaN,NaN,NaN
2,21,NaN,NaN,NaN
2,22,NaN,NaN,NaN
2,23,NaN,NaN,NaN
2,24,NaN,NaN,NaN
2,25,NaN,NaN,NaN
2,26,NaN,NaN,NaN
2,27,NaN,NaN,NaN
2,28,NaN,NaN,NaN
2,29,NaN,NaN,NaN
2,30,NaN,NaN,NaN
2,31,NaN,NaN,NaN
2,32,NaN,NaN,NaN
2,33,NaN,NaN,NaN
2,34,NaN,NaN,NaN
2,35,NaN,NaN,NaN
2,36,NaN,NaN,NaN
2,37,NaN,NaN,NaN
2,38,NaN,NaN,NaN
2,39,NaN,NaN,NaN
2,40,NaN,NaN,NaN
2,41,NaN,NaN,NaN
2,42,NaN,NaN,NaN
2,43,NaN,NaN,NaN
2,44,NaN,NaN,NaN
2,45,NaN,NaN,NaN
2,46,NaN,NaN,NaN
2,47,NaN,NaN,NaN
2,48,NaN,NaN,NaN
2,49,NaN,NaN,NaN
2,50,NaN,NaN,NaN
2,51,NaN,NaN,NaN
2,52,NaN,NaN,NaN
2,53,NaN,NaN,NaN
2,54,NaN,NaN,NaN
2,55,NaN,NaN,NaN
2,56,NaN,NaN,NaN
2,57,NaN,NaN,NaN
2,58,NaN,NaN,NaN
2,59,NaN,NaN,NaN
2,60,NaN,NaN,NaN
2,61,NaN,NaN,NaN
2,62,NaN,NaN,NaN
2,63,NaN,NaN,NaN
2,64,NaN,NaN,NaN
2,65,NaN,NaN,NaN
2,66,NaN,NaN,NaN
2,67,NaN,NaN,NaN
2,68,NaN,NaN,NaN
2,69,NaN,NaN,NaN
2,70,NaN,NaN,NaN
2,71,NaN,NaN,NaN
2,72,NaN,NaN,NaN
2,73,NaN,NaN,NaN
2,74,NaN,NaN,NaN
2,75,NaN,NaN,NaN
2,76,NaN,NaN,NaN
2,77,NaN,NaN,NaN
2,78,NaN,NaN,NaN
2,79,NaN,NaN,NaN
2,80,NaN,NaN,NaN
2,81,NaN,NaN,NaN
2,82,NaN,NaN,NaN
2,83,NaN,NaN,NaN
2,84,NaN,NaN,NaN
2,85,NaN,NaN,NaN
2,86,NaN,NaN,NaN
2,87,NaN,NaN,NaN
2,88,NaN,NaN,NaN
2,89,NaN,NaN,NaN
2,90,NaN,NaN,NaN
2,91,NaN,NaN,NaN
2,92,NaN,NaN,NaN
2,93,NaN,NaN,NaN
2,94,NaN,NaN,NaN
2,95,NaN,NaN,NaN
2,96,NaN,NaN,NaN
2,97,NaN,NaN,NaN
2,98,NaN,NaN,NaN
2,99,NaN,NaN,NaN
2,100,NaN,NaN,NaN
2,101,NaN,NaN,NaN
2,102,NaN,NaN,NaN
2,103,NaN,NaN,NaN
2,104,NaN,NaN,NaN
2,105,NaN,NaN,NaN
2,106,NaN,NaN,NaN
2,107,NaN,NaN,NaN
2,108,NaN,NaN,NaN
2,109,NaN,NaN,NaN
2,110,NaN,NaN,NaN
2,111,NaN,NaN,NaN
2,112,NaN,NaN,NaN
2,113,NaN,NaN,NaN
2,114,NaN,NaN,NaN
2,115,NaN,NaN,NaN
2,116,NaN,NaN,NaN
2,117,NaN,NaN,NaN
2,118,NaN,NaN,NaN
2,119,NaN,NaN,NaN
2,120,NaN,NaN,NaN
2,121,NaN,NaN,NaN
2,122,NaN,NaN,NaN
2,123,NaN,NaN,NaN
2,124,NaN,NaN,NaN
2,125,NaN,NaN,NaN
2,126,NaN,NaN,NaN
2,127,NaN,NaN,NaN
2,128,NaN,NaN,NaN
2,129,NaN,NaN,NaN
3,1,NaN,NaN,NaN
3,2,NaN,NaN,NaN
3,3,NaN,NaN,NaN
3,4,NaN,NaN,NaN
3,5,NaN,NaN,NaN
3,6,NaN,NaN,NaN
3,7,NaN,NaN,NaN
3,8,NaN,NaN,NaN
3,9,NaN,NaN,NaN
3,10,NaN,NaN,NaN
3,11,NaN,NaN,NaN
3,12,NaN,NaN,NaN
3,13,NaN,NaN,NaN
3,14,NaN,NaN,NaN
3,15,NaN,NaN,NaN
3,16,NaN,NaN,NaN
3,17,NaN,NaN,NaN
3,18,NaN,NaN,NaN
3,19,NaN,NaN,NaN
3,20,NaN,NaN,NaN
3,21,NaN,NaN,NaN
3,22,NaN,NaN,NaN
3,23,NaN,NaN,NaN
3,24,NaN,NaN,NaN
3,25,NaN,NaN,NaN
3,26,NaN,NaN,NaN
3,27,NaN,NaN,NaN
3,28,NaN,NaN,NaN
3,29,NaN,NaN,NaN
3,30,NaN,NaN,NaN
3,31,NaN,NaN,NaN
3,32,NaN,NaN,NaN
3,33,NaN,NaN,NaN
3,34,NaN,NaN,NaN
3,35,NaN,NaN,NaN
3,36,NaN,NaN,NaN
3,37,NaN,NaN,NaN
3,38,NaN,NaN,NaN
3,39,NaN,NaN,NaN
3,40,NaN,NaN,NaN
3,41,NaN,NaN,NaN
3,42,NaN,NaN,NaN
3,43,NaN,NaN,NaN
3,44,NaN,NaN,NaN
3,45,NaN,NaN,NaN
3,46,NaN,NaN,NaN
3,47,NaN,NaN,NaN
3,48,NaN,NaN,NaN
3,49,NaN,NaN,NaN
3,50,NaN,NaN,NaN
3,51,NaN,NaN,NaN
3,52,NaN,NaN,NaN
3,53,NaN,NaN,NaN
3,54,NaN,NaN,NaN
3,55,NaN,NaN,NaN
3,56,NaN,NaN,NaN
3,57,NaN,NaN,NaN
3,58,NaN,NaN,NaN
3,59,NaN,NaN,NaN
3,60,NaN,NaN,NaN
3,61,NaN,NaN,NaN
3,62,NaN,NaN,NaN
3,63,NaN,NaN,NaN
3,64,NaN,NaN,NaN
3,65,NaN,NaN,NaN
3,66,NaN,NaN,NaN
3,67,NaN,NaN,NaN
3,68,NaN,NaN,NaN
3,69,NaN,NaN,NaN
3,70,NaN,NaN,NaN
3,71,NaN,NaN,NaN
3,72,NaN,NaN,NaN
3,73,NaN,NaN,NaN
3,74,NaN,NaN,NaN
3,75,NaN,NaN,NaN
3,76,NaN,NaN,NaN
3,77,NaN,NaN,NaN
3,78,NaN,NaN,NaN
3,79,NaN,NaN,NaN
3,80,NaN,NaN,NaN
3,81,NaN,NaN,NaN
3,82,NaN,NaN,NaN
3,83,NaN,NaN,NaN
3,84,NaN,NaN,NaN
3,85,NaN,NaN,NaN
3,86,NaN,NaN,NaN
3,87,NaN,NaN,NaN
3,88,NaN,NaN,NaN
3,89,NaN,NaN,NaN
3,90,NaN,NaN,NaN
3,91,NaN,NaN,NaN
3,92,NaN,NaN,NaN
3,93,NaN,NaN,NaN
3,94,NaN,NaN,NaN
3,95,NaN,NaN,NaN
3,96,NaN,NaN,NaN
3,97,NaN,NaN,NaN
3,98,NaN,NaN,NaN
3,99,NaN,NaN,NaN
3,100,NaN,NaN,NaN
3,101,NaN,NaN,NaN
3,102,NaN,NaN,NaN
3,103,NaN,NaN,NaN
3,104,NaN,NaN,NaN
3,105,NaN,NaN,NaN
3,106,NaN,NaN,NaN
3,107,NaN,NaN,NaN
3,108,NaN,NaN,NaN
3,109,NaN,NaN,NaN
3,110,NaN,NaN,NaN
3,111,NaN,NaN,NaN
3,112,NaN,NaN,NaN
3,113,NaN,NaN,NaN
3,114,NaN,NaN,NaN
3,115,NaN,NaN,NaN
3,116,NaN,NaN,NaN
3,117,NaN,NaN,NaN
3,118,NaN,NaN,NaN
3,119,NaN,NaN,NaN
3,120,NaN,NaN,NaN
3,121,NaN,NaN,NaN
3,122,NaN,NaN,NaN
3,123,NaN,NaN,NaN
3,124,NaN,NaN,NaN
3,125,NaN,NaN,NaN
3,126,NaN,NaN,NaN
3,127,NaN,NaN,NaN
3,128,NaN,NaN,NaN
3,129,NaN,NaN,NaN
4,1,NaN,NaN,NaN
4,2,NaN,NaN,NaN
4,3,NaN,NaN,NaN
4,4,NaN,NaN,NaN
4,5,NaN,NaN,NaN
4,6,NaN,NaN,NaN
4,7,NaN,NaN,NaN
4,8,NaN,NaN,NaN
4,9,NaN,NaN,NaN
4,10,NaN,NaN,NaN
4,11,NaN,NaN,NaN
4,12,NaN,NaN,NaN
4,13,NaN,NaN,NaN
4,14,NaN,NaN,NaN
4,15,NaN,NaN,NaN
4,16,NaN,NaN,NaN
4,17,NaN,NaN,NaN
4,18,NaN,NaN,NaN
4,19,NaN,NaN,NaN
4,20,NaN,NaN,NaN
4,21,NaN,NaN,NaN
4,22,NaN,NaN,NaN
4,23,NaN,NaN,NaN
4,24,NaN,NaN,NaN
4,25,NaN,NaN,NaN
4,26,NaN,NaN,NaN
4,27,NaN,NaN,NaN
4,28,NaN,NaN,NaN
4,29,NaN,NaN,NaN
4,30,NaN,NaN,NaN
4,31,NaN,NaN,NaN
4,32,NaN,NaN,NaN
4,33,NaN,NaN,NaN
4,34,NaN,NaN,NaN
4,35,NaN,NaN,NaN
4,36,NaN,NaN,NaN
4,37,NaN,NaN,NaN
4,38,NaN,NaN,NaN
4,39,NaN,NaN,NaN
4,40,NaN,NaN,NaN
4,41,NaN,NaN,NaN
4,42,NaN,NaN,NaN
4,43,NaN,NaN,NaN
4,44,NaN,NaN,NaN
4,45,NaN,NaN,NaN
4,46,NaN,NaN,NaN
4,47,NaN,NaN,NaN
4,48,NaN,NaN,NaN
4,49,NaN,NaN,NaN
4,50,NaN,NaN,NaN
4,51,NaN,NaN,NaN
4,52,NaN,NaN,NaN
4,53,NaN,NaN,NaN
4,54,NaN,NaN,NaN
4,55,NaN,NaN,NaN
4,56,NaN,NaN,NaN
4,57,NaN,NaN,NaN
4,58,NaN,NaN,NaN
4,59,NaN,NaN,NaN
4,60,NaN,NaN,NaN
4,61,NaN,NaN,NaN
4,62,NaN,NaN,NaN
4,63,NaN,NaN,NaN
4,64,NaN,NaN,NaN
4,65,NaN,NaN,NaN
4,66,NaN,NaN,NaN
4,67,NaN,NaN,NaN
4,68,NaN,NaN,NaN
4,69,NaN,NaN,NaN
4,70,NaN,NaN,NaN
4,71,NaN,NaN,NaN
4,72,NaN,NaN,NaN
4,73,NaN,NaN,NaN
4,74,NaN,NaN,NaN
4,75,NaN,NaN,NaN
4,76,NaN,NaN,NaN
4,77,NaN,NaN,NaN
4,78,NaN,NaN,NaN
4,79,NaN,NaN,NaN
4,80,NaN,NaN,NaN
4,81,NaN,NaN,NaN
4,82,NaN,NaN,NaN
4,83,NaN,NaN,NaN
4,84,NaN,NaN,NaN
4,85,NaN,NaN,NaN
4,86,NaN,NaN,NaN
4,87,NaN,NaN,NaN
4,88,NaN,NaN,NaN
4,89,NaN,NaN,NaN
4,90,NaN,NaN,NaN
4,91,NaN,NaN,NaN
4,92,NaN,NaN,NaN
4,93,NaN,NaN,NaN
4,94,NaN,NaN,NaN
4,95,NaN,NaN,NaN
4,96,NaN,NaN,NaN
4,97,NaN,NaN,NaN
4,98,NaN,NaN,NaN
4,99,NaN,NaN,NaN
4,100,NaN,NaN,NaN
4,101,NaN,NaN,NaN
4,102,NaN,NaN,NaN
4,103,NaN,NaN,NaN
4,104,NaN,NaN,NaN
4,105,NaN,NaN,NaN
4,106,NaN,NaN,NaN
4,107,NaN,NaN,NaN
4,108,NaN,NaN,NaN
4,109,NaN,NaN,NaN
4,110,NaN,NaN,NaN
4,111,NaN,NaN,NaN
4,112,NaN,NaN,NaN
4,113,NaN,NaN,NaN
4,114,NaN,NaN,NaN
4,115,NaN,NaN,NaN
4,116,NaN,NaN,NaN
4,117,NaN,NaN,NaN
4,118,NaN,NaN,NaN
4,119,NaN,NaN,NaN
4,120,NaN,NaN,NaN
4,121,NaN,NaN,NaN
4,122,NaN,NaN,NaN
4,123,NaN,NaN,NaN
4,124,NaN,NaN,NaN
4,125,NaN,NaN,NaN
4,126,NaN,NaN,NaN
4,127,NaN,NaN,NaN
4,128,NaN,NaN,NaN
4,129,NaN,NaN,NaN
5,1,NaN,NaN,NaN
5,2,NaN,NaN,NaN
5,3,NaN,NaN,NaN
5,4,NaN,NaN,NaN
5,5,NaN,NaN,NaN
5,6,NaN,NaN,NaN
5,7,NaN,NaN,NaN
5,8,NaN,NaN,NaN
5,9,NaN,NaN,NaN
5,10,NaN,NaN,NaN
5,11,NaN,NaN,NaN
5,12,NaN,NaN,NaN
5,13,NaN,NaN,NaN
5,14,NaN,NaN,NaN
5,15,NaN,NaN,NaN
5,16,NaN,NaN,NaN
5,17,NaN,NaN,NaN
5,18,NaN,NaN,NaN
5,19,NaN,NaN,NaN
5,20,NaN,NaN,NaN
5,21,NaN,NaN,NaN
5,22,NaN,NaN,NaN
5,23,NaN,NaN,NaN
5,24,NaN,NaN,NaN
5,25,NaN,NaN,NaN
5,26,NaN,NaN,NaN
5,27,NaN,NaN,NaN
5,28,NaN,NaN,NaN
5,29,NaN,NaN,NaN
5,30,NaN,NaN,NaN
5,31,NaN,NaN,NaN
5,32,NaN,NaN,NaN
5,33,NaN,NaN,NaN
5,34,NaN,NaN,NaN
5,35,NaN,NaN,NaN
5,36,NaN,NaN,NaN
5,37,NaN,NaN,NaN
5,38,NaN,NaN,NaN
5,39,NaN,NaN,NaN
5,40,NaN,NaN,NaN
5,41,NaN,NaN,NaN
5,42,NaN,NaN,NaN
5,43,NaN,NaN,NaN
5,44,NaN,NaN,NaN
5,45,NaN,NaN,NaN
5,46,NaN,NaN,NaN
5,47,NaN,NaN,NaN
5,48,NaN,NaN,NaN
5,49,NaN,NaN,NaN
5,50,NaN,NaN,NaN
5,51,NaN,NaN,NaN
5,52,NaN,NaN,NaN
5,53,NaN,NaN,NaN
5,54,NaN,NaN,NaN
5,55,NaN,NaN,NaN
5,56,NaN,NaN,NaN
5,57,NaN,NaN,NaN
5,58,NaN,NaN,NaN
5,59,NaN,NaN,NaN
5,60,NaN,NaN,NaN
5,61,NaN,NaN,NaN
5,62,NaN,NaN,NaN
5,63,NaN,NaN,NaN
5,64,NaN,NaN,NaN
5,65,NaN,NaN,NaN
5,66,NaN,NaN,NaN
5,67,NaN,NaN,NaN
5,68,NaN,NaN,NaN
5,69,NaN,NaN,NaN
5,70,NaN,NaN,NaN
5,71,NaN,NaN,NaN
5,72,NaN,NaN,NaN
5,73,NaN,NaN,NaN
5,74,NaN,NaN,NaN
5,75,NaN,NaN,NaN
5,76,NaN,NaN,NaN
5,77,NaN,NaN,NaN
5,78,NaN,NaN,NaN
5,79,NaN,NaN,NaN
5,80,NaN,NaN,NaN
5,81,NaN,NaN,NaN
5,82,NaN,NaN,NaN
5,83,NaN,NaN,NaN
5,84,NaN,NaN,NaN
5,85,NaN,NaN,NaN
5,86,NaN,NaN,NaN
5,87,NaN,NaN,NaN
5,88,NaN,NaN,NaN
5,89,NaN,NaN,NaN
5,90,NaN,NaN,NaN
5,91,NaN,NaN,NaN
5,92,NaN,NaN,NaN
5,93,NaN,NaN,NaN
5,94,NaN,NaN,NaN
5,95,NaN,NaN,NaN
5,96,NaN,NaN,NaN
5,97,NaN,NaN,NaN
5,98,NaN,NaN,NaN
5,99,NaN,NaN,NaN
5,100,NaN,NaN,NaN
5,101,NaN,NaN,NaN
5,102,NaN,NaN,NaN
5,103,NaN,NaN,NaN
5,104,NaN,NaN,NaN
5,105,NaN,NaN,NaN
5,106,NaN,NaN,NaN
5,107,NaN,NaN,NaN
5,108,NaN,NaN,NaN
5,109,NaN,NaN,NaN
5,110,NaN,NaN,NaN
5,111,NaN,NaN,NaN
5,112,NaN,NaN,NaN
5,113,NaN,NaN,NaN
5,114,NaN,NaN,NaN
5,115,NaN,NaN,NaN
5,116,NaN,NaN,NaN
5,117,NaN,NaN,NaN
5,118,NaN,NaN,NaN
5,119,NaN,NaN,NaN
5,120,NaN,NaN,NaN
5,121,NaN,NaN,NaN
5,122,NaN,NaN,NaN
5,123,NaN,NaN,NaN
5,124,NaN,NaN,NaN
5,125,NaN,NaN,NaN
5,126,NaN,NaN,NaN
5,127,NaN,NaN,NaN
5,128,NaN,NaN,NaN
5,129,NaN,NaN,NaN
6,1,NaN,NaN,NaN
6,2,NaN,NaN,NaN
6,3,NaN,NaN,NaN
6,4,NaN,NaN,NaN
6,5,NaN,NaN,NaN
6,6,NaN,NaN,NaN
6,7,NaN,NaN,NaN
6,8,NaN,NaN,NaN
6,9,NaN,NaN,NaN
6,10,NaN,NaN,NaN
6,11,NaN,NaN,NaN
6,12,NaN,NaN,NaN
6,13,NaN,NaN,NaN
6,14,NaN,NaN,NaN
6,15,NaN,NaN,NaN
6,16,NaN,NaN,NaN
6,17,NaN,NaN,NaN
6,18,NaN,NaN,NaN
6,19,NaN,NaN,NaN
6,20,NaN,NaN,NaN
6,21,NaN,NaN,NaN
6,22,NaN,NaN,NaN
6,23,NaN,NaN,NaN
6,24,NaN,NaN,NaN
6,25,NaN,NaN,NaN
6,26,NaN,NaN,NaN
6,27,NaN,NaN,NaN
6,28,NaN,NaN,NaN
6,29,NaN,NaN,NaN
6,30,NaN,NaN,NaN
6,31,NaN,NaN,NaN
6,32,NaN,NaN,NaN
6,33,NaN,NaN,NaN
6,34,NaN,NaN,NaN
6,35,NaN,NaN,NaN
6,36,NaN,NaN,NaN
6,37,NaN,NaN,NaN
6,38,NaN,NaN,NaN
6,39,NaN,NaN,NaN
6,40,NaN,NaN,NaN
6,41,NaN,NaN,NaN
6,42,NaN,NaN,NaN
6,43,NaN,NaN,NaN
6,44,NaN,NaN,NaN
6,45,NaN,NaN,NaN
6,46,NaN,NaN,NaN
6,47,NaN,NaN,NaN
6,48,NaN,NaN,NaN
6,49,NaN,NaN,NaN
6,50,NaN,NaN,NaN
6,51,NaN,NaN,NaN
6,52,NaN,NaN,NaN
6,53,NaN,NaN,NaN
6,54,NaN,NaN,NaN
6,55,NaN,NaN,NaN
6,56,NaN,NaN,NaN
6,57,NaN,NaN,NaN
6,58,NaN,NaN,NaN
6,59,NaN,NaN,NaN
6,60,NaN,NaN,NaN
6,61,NaN,NaN,NaN
6,62,NaN,NaN,NaN
6,63,NaN,NaN,NaN
6,64,NaN,NaN,NaN
6,65,NaN,NaN,NaN
6,66,NaN,NaN,NaN
6,67,NaN,NaN,NaN
6,68,NaN,NaN,NaN
6,69,NaN,NaN,NaN
6,70,NaN,NaN,NaN
6,71,NaN,NaN,NaN
6,72,NaN,NaN,NaN
6,73,NaN,NaN,NaN
6,74,NaN,NaN,NaN
6,75,NaN,NaN,NaN
6,76,NaN,NaN,NaN
6,77,NaN,NaN,NaN
6,78,NaN,NaN,NaN
6,79,NaN,NaN,NaN
6,80,NaN,NaN,NaN
6,81,NaN,NaN,NaN
6,82,NaN,NaN,NaN
6,83,NaN,NaN,NaN
6,84,NaN,NaN,NaN
6,85,NaN,NaN,NaN
6,86,NaN,NaN,NaN
6,87,NaN,NaN,NaN
6,88,NaN,NaN,NaN
6,89,NaN,NaN,NaN
6,90,NaN,NaN,NaN
6,91,NaN,NaN,NaN
6,92,NaN,NaN,NaN
6,93,NaN,NaN,NaN
6,94,NaN,NaN,NaN
6,95,NaN,NaN,NaN
6,96,NaN,NaN,NaN
6,97,NaN,NaN,NaN
6,98,NaN,NaN,NaN
6,99,NaN,NaN,NaN
6,100,NaN,NaN,NaN
6,101,NaN,NaN,NaN
6,102,NaN,NaN,NaN
6,103,NaN,NaN,NaN
6,104,NaN,NaN,NaN
6,105,NaN,NaN,NaN
6,106,NaN,NaN,NaN
6,107,NaN,NaN,NaN
6,108,NaN,NaN,NaN
6,109,NaN,NaN,NaN
6,110,NaN,NaN,NaN
6,111,NaN,NaN,NaN
6,112,NaN,NaN,NaN
6,113,NaN,NaN,NaN
6,114,NaN,NaN,NaN
6,115,NaN,NaN,NaN
6,116,NaN,NaN,NaN
6,117,NaN,NaN,NaN
6,118,NaN,NaN,NaN
6,119,NaN,NaN,NaN
6,120,NaN,NaN,NaN
6,121,NaN,NaN,NaN
6,122,NaN,NaN,NaN
6,123,NaN,NaN,NaN
6,124,NaN,NaN,NaN
6,125,NaN,NaN,NaN
6,126,NaN,NaN,NaN
6,127,NaN,NaN,NaN
6,128,NaN,NaN,NaN
6,129,NaN,NaN,NaN
7,1,NaN,NaN,NaN
7,2,NaN,NaN,NaN
7,3,NaN,NaN,NaN
7,4,NaN,NaN,NaN
7,5,NaN,NaN,NaN
7,6,NaN,NaN,NaN
7,7,NaN,NaN,NaN
7,8,NaN,NaN,NaN
7,9,NaN,NaN,NaN
7,10,NaN,NaN,NaN
7,11,NaN,NaN,NaN
7,12,NaN,NaN,NaN
7,13,NaN,NaN,NaN
7,14,NaN,NaN,NaN
7,15,NaN,NaN,NaN
7,16,NaN,NaN,NaN
7,17,NaN,NaN,NaN
7,18,NaN,NaN,NaN
7,19,NaN,NaN,NaN
7,20,NaN,NaN,NaN
7,21,NaN,NaN,NaN
7,22,NaN,NaN,NaN
7,23,NaN,NaN,NaN
7,24,NaN,NaN,NaN
7,25,NaN,NaN,NaN
7,26,NaN,NaN,NaN
7,27,NaN,NaN,NaN
7,28,NaN,NaN,NaN
7,29,NaN,NaN,NaN
7,30,NaN,NaN,NaN
7,31,NaN,NaN,NaN
7,32,NaN,NaN,NaN
7,33,NaN,NaN,NaN
7,34,NaN,NaN,NaN
7,35,NaN,NaN,NaN
7,36,NaN,NaN,NaN
7,37,NaN,NaN,NaN
7,38,NaN,NaN,NaN
7,39,NaN,NaN,NaN
7,40,NaN,NaN,NaN
7,41,NaN,NaN,NaN
7,42,NaN,NaN,NaN
7,43,NaN,NaN,NaN
7,44,NaN,NaN,NaN
7,45,NaN,NaN,NaN
7,46,NaN,NaN,NaN
7,47,NaN,NaN,NaN
7,48,NaN,NaN,NaN
7,49,NaN,NaN,NaN
7,50,NaN,NaN,NaN
7,51,NaN,NaN,NaN
7,52,NaN,NaN,NaN
7,53,NaN,NaN,NaN
7,54,NaN,NaN,NaN
7,55,NaN,NaN,NaN
7,56,NaN,NaN,NaN
7,57,NaN,NaN,NaN
7,58,NaN,NaN,NaN
7,59,NaN,NaN,NaN
7,60,NaN,NaN,NaN
7,61,NaN,NaN,NaN
7,62,NaN,NaN,NaN
7,63,NaN,NaN,NaN
7,64,NaN,NaN,NaN
7,65,NaN,NaN,NaN
7,66,NaN,NaN,NaN
7,67,NaN,NaN,NaN
7,68,NaN,NaN,NaN
7,69,NaN,NaN,NaN
7,70,NaN,NaN,NaN
7,71,NaN,NaN,NaN
7,72,NaN,NaN,NaN
7,73,NaN,NaN,NaN
7,74,NaN,NaN,NaN
7,75,NaN,NaN,NaN
7,76,NaN,NaN,NaN
7,77,NaN,NaN,NaN
7,78,NaN,NaN,NaN
7,79,NaN,NaN,NaN
7,80,NaN,NaN,NaN
7,81,NaN,NaN,NaN
7,82,NaN,NaN,NaN
7,83,NaN,NaN,NaN
7,84,NaN,NaN,NaN
7,85,NaN,NaN,NaN
7,86,NaN,NaN,NaN
7,87,NaN,NaN,NaN
7,88,NaN,NaN,NaN
7,89,NaN,NaN,NaN
7,90,NaN,NaN,NaN
7,91,NaN,NaN,NaN
7,92,NaN,NaN,NaN
7,93,NaN,NaN,NaN
7,94,NaN,NaN,NaN
7,95,NaN,NaN,NaN
7,96,NaN,NaN,NaN
7,97,NaN,NaN,NaN
7,98,NaN,NaN,NaN
7,99,NaN,NaN,NaN
7,100,NaN,NaN,NaN
7,101,NaN,NaN,NaN
7,102,NaN,NaN,NaN
7,103,NaN,NaN,NaN
7,104,NaN,NaN,NaN
7,105,NaN,NaN,NaN
7,106,NaN,NaN,NaN
7,107,NaN,NaN,NaN
7,108,NaN,NaN,NaN
7,109,NaN,NaN,NaN
7,110,NaN,NaN,NaN
7,111,NaN,NaN,NaN
7,112,NaN,NaN,NaN
7,113,NaN,NaN,NaN
7,114,NaN,NaN,NaN
7,115,NaN,NaN,NaN
7,116,NaN,NaN,NaN
7,117,NaN,NaN,NaN
7,118,NaN,NaN,NaN
7,119,NaN,NaN,NaN
7,120,NaN,NaN,NaN
7,121,NaN,NaN,NaN
7,122,NaN,NaN,NaN
7,123,NaN,NaN,NaN
7,124,NaN,NaN,NaN
7,125,NaN,NaN,NaN
7,126,NaN,NaN,NaN
7,127,NaN,NaN,NaN
7,128,NaN,NaN,NaN
7,129,NaN,NaN,NaN
8,1,NaN,NaN,NaN
8,2,NaN,NaN,NaN
8,3,NaN,NaN,NaN
8,4,NaN,NaN,NaN
8,5,NaN,NaN,NaN
8,6,NaN,NaN,NaN
8,7,NaN,NaN,NaN
8,8,NaN,NaN,NaN
8,9,NaN,NaN,NaN
8,10,NaN,NaN,NaN
8,11,NaN,NaN,NaN
8,12,NaN,NaN,NaN
8,13,NaN,NaN,NaN
8,14,NaN,NaN,NaN
8,15,NaN,NaN,NaN
8,16,NaN,NaN,NaN
8,17,NaN,NaN,NaN
8,18,NaN,NaN,NaN
8,19,NaN,NaN,NaN
8,20,NaN,NaN,NaN
8,21,NaN,NaN,NaN
8,22,NaN,NaN,NaN
8,23,NaN,NaN,NaN
8,24,NaN,NaN,NaN
8,25,NaN,NaN,NaN
8,26,NaN,NaN,NaN
8,27,NaN,NaN,NaN
8,28,NaN,NaN,NaN
8,29,NaN,NaN,NaN
8,30,NaN,NaN,NaN
8,31,NaN,NaN,NaN
8,32,NaN,NaN,NaN
8,33,NaN,NaN,NaN
8,34,NaN,NaN,NaN
8,35,NaN,NaN,NaN
8,36,NaN,NaN,NaN
8,37,NaN,NaN,NaN
8,38,NaN,NaN,NaN
8,39,NaN,NaN,NaN
8,40,NaN,NaN,NaN
8,41,NaN,NaN,NaN
8,42,NaN,NaN,NaN
8,43,NaN,NaN,NaN
8,44,NaN,NaN,NaN
8,45,NaN,NaN,NaN
8,46,NaN,NaN,NaN
8,47,NaN,NaN,NaN
8,48,NaN,NaN,NaN
8,49,NaN,NaN,NaN
8,50,NaN,NaN,NaN
8,51,NaN,NaN,NaN
8,52,NaN,NaN,NaN
8,53,NaN,NaN,NaN
8,54,NaN,NaN,NaN
8,55,NaN,NaN,NaN
8,56,NaN,NaN,NaN
8,57,NaN,NaN,NaN
8,58,NaN,NaN,NaN
8,59,NaN,NaN,NaN
8,60,NaN,NaN,NaN
8,61,NaN,NaN,NaN
8,62,NaN,NaN,NaN
8,63,NaN,NaN,NaN
8,64,NaN,NaN,NaN
8,65,NaN,NaN,NaN
8,66,NaN,NaN,NaN
8,67,NaN,NaN,NaN
8,68,NaN,NaN,NaN
8,69,NaN,NaN,NaN
8,70,NaN,NaN,NaN
8,71,NaN,NaN,NaN
8,72,NaN,NaN,NaN
8,73,NaN,NaN,NaN
8,74,NaN,NaN,NaN
8,75,NaN,NaN,NaN
8,76,NaN,NaN,NaN
8,77,NaN,NaN,NaN
8,78,NaN,NaN,NaN
8,79,NaN,NaN,NaN
8,80,NaN,NaN,NaN
8,81,NaN,NaN,NaN
8,82,NaN,NaN,NaN
8,83,NaN,NaN,NaN
8,84,NaN,NaN,NaN
8,85,NaN,NaN,NaN
8,86,NaN,NaN,NaN
8,87,NaN,NaN,NaN
8,88,NaN,NaN,NaN
8,89,NaN,NaN,NaN
8,90,NaN,NaN,NaN
8,91,NaN,NaN,NaN
8,92,NaN,NaN,NaN
8,93,NaN,NaN,NaN
8,94,NaN,NaN,NaN
8,95,NaN,NaN,NaN
8,96,NaN,NaN,NaN
8,97,NaN,NaN,NaN
8,98,NaN,NaN,NaN
8,99,NaN,NaN,NaN
8,100,NaN,NaN,NaN
8,101,NaN,NaN,NaN
8,102,NaN,NaN,NaN
8,103,NaN,NaN,NaN
8,104,NaN,NaN,NaN
8,105,NaN,NaN,NaN
8,106,NaN,NaN,NaN
8,107,NaN,NaN,NaN
8,108,NaN,NaN,NaN
8,109,NaN,NaN,NaN
8,110,NaN,NaN,NaN
8,111,NaN,NaN,NaN
8,112,NaN,NaN,NaN
8,113,NaN,NaN,NaN
8,114,NaN,NaN,NaN
8,115,NaN,NaN,NaN
8,116,NaN,NaN,NaN
8,117,NaN,NaN,NaN
8,118,NaN,NaN,NaN
8,119,NaN,NaN,NaN
8,120,NaN,NaN,NaN
8,121,NaN,NaN,NaN
8,122,NaN,NaN,NaN
8,123,NaN,NaN,NaN
8,124,NaN,NaN,NaN
8,125,NaN,NaN,NaN
8,126,NaN,NaN,NaN
8,127,NaN,NaN,NaN
8,128,NaN,NaN,NaN
8,129,NaN,NaN,NaN
9,1,NaN,NaN,NaN
9,2,NaN,NaN,NaN
9,3,NaN,NaN,NaN
9,4,NaN,NaN,NaN
9,5,NaN,NaN,NaN
9,6,NaN,NaN,NaN
9,7,NaN,NaN,NaN
9,8,NaN,NaN,NaN
9,9,NaN,NaN,NaN
9,10,NaN,NaN,NaN
9,11,NaN,NaN,NaN
9,12,NaN,NaN,NaN
9,13,NaN,NaN,NaN
9,14,NaN,NaN,NaN
9,15,NaN,NaN,NaN
9,16,NaN,NaN,NaN
9,17,NaN,NaN,NaN
9,18,NaN,NaN,NaN
9,19,NaN,NaN,NaN
9,20,NaN,NaN,NaN
9,21,NaN,NaN,NaN
9,22,NaN,NaN,NaN
9,23,NaN,NaN,NaN
9,24,NaN,NaN,NaN
9,25,NaN,NaN,NaN
9,26,NaN,NaN,NaN
9,27,NaN,NaN,NaN
9,28,NaN,NaN,NaN
9,29,NaN,NaN,NaN
9,30,NaN,NaN,NaN
9,31,NaN,NaN,NaN
9,32,NaN,NaN,NaN
9,33,NaN,NaN,NaN
9,34,NaN,NaN,NaN
9,35,NaN,NaN,NaN
9,36,NaN,NaN,NaN
9,37,NaN,NaN,NaN
9,38,NaN,NaN,NaN
9,39,NaN,NaN,NaN
9,40,NaN,NaN,NaN
9,41,NaN,NaN,NaN
9,42,NaN,NaN,NaN
9,43,NaN,NaN,NaN
9,44,NaN,NaN,NaN
9,45,NaN,NaN,NaN
9,46,NaN,NaN,NaN
9,47,NaN,NaN,NaN
9,48,NaN,NaN,NaN
9,49,NaN,NaN,NaN
9,50,NaN,NaN,NaN
9,51,NaN,NaN,NaN
9,52,NaN,NaN,NaN
9,53,NaN,NaN,NaN
9,54,NaN,NaN,NaN
9,55,NaN,NaN,NaN
9,56,NaN,NaN,NaN
9,57,NaN,NaN,NaN
9,58,NaN,NaN,NaN
9,59,NaN,NaN,NaN
9,60,NaN,NaN,NaN
9,61,NaN,NaN,NaN
9,62,NaN,NaN,NaN
9,63,NaN,NaN,NaN
9,64,NaN,NaN,NaN
9,65,NaN,NaN,NaN
9,66,NaN,NaN,NaN
9,67,NaN,NaN,NaN
9,68,NaN,NaN,NaN
9,69,NaN,NaN,NaN
9,70,NaN,NaN,NaN
9,71,NaN,NaN,NaN
9,72,NaN,NaN,NaN
9,73,NaN,NaN,NaN
9,74,NaN,NaN,NaN
9,75,NaN,NaN,NaN
9,76,NaN,NaN,NaN
9,77,NaN,NaN,NaN
9,78,NaN,NaN,NaN
9,79,NaN,NaN,NaN
9,80,NaN,NaN,NaN
9,81,NaN,NaN,NaN
9,82,NaN,NaN,NaN
9,83,NaN,NaN,NaN
9,84,NaN,NaN,NaN
9,85,NaN,NaN,NaN
9,86,NaN,NaN,NaN
9,87,NaN,NaN,NaN
9,88,NaN,NaN,NaN
9,89,NaN,NaN,NaN
9,90,NaN,NaN,NaN
9,91,NaN,NaN,NaN
9,92,NaN,NaN,NaN
9,93,NaN,NaN,NaN
9,94,NaN,NaN,NaN
9,95,NaN,NaN,NaN
9,96,NaN,NaN,NaN
9,97,NaN,NaN,NaN
9,98,NaN,NaN,NaN
9,99,NaN,NaN,NaN
9,100,NaN,NaN,NaN
9,101,NaN,NaN,NaN
9,102,NaN,NaN,NaN
9,103,NaN,NaN,NaN
9,104,NaN,NaN,NaN
9,105,NaN,NaN,NaN
9,106,NaN,NaN,NaN
9,107,NaN,NaN,NaN
9,108,NaN,NaN,NaN
9,109,NaN,NaN,NaN
9,110,NaN,NaN,NaN
9,111,NaN,NaN,NaN
9,112,NaN,NaN,NaN
9,113,NaN,NaN,NaN
9,114,NaN,NaN,NaN
9,115,NaN,NaN,NaN
9,116,NaN,NaN,NaN
9,117,NaN,NaN,NaN
9,118,NaN,NaN,NaN
9,119,NaN,NaN,NaN
9,120,NaN,NaN,NaN
9,121,NaN,NaN,NaN
9,122,NaN,NaN,NaN
9,123,NaN,NaN,NaN
9,124,NaN,NaN,NaN
9,125,NaN,NaN,NaN
9,126,NaN,NaN,NaN
9,127,NaN,NaN,NaN
9,128,NaN,NaN,NaN
9,129,NaN,NaN,NaN
10,1,NaN,NaN,NaN
10,2,NaN,NaN,NaN
10,3,NaN,NaN,NaN
10,4,NaN,NaN,NaN
10,5,NaN,NaN,NaN
10,6,NaN,NaN,NaN
10,7,NaN,NaN,NaN
10,8,NaN,NaN,NaN
10,9,NaN,NaN,NaN
10,10,NaN,NaN,NaN
10,11,NaN,NaN,NaN
10,12,NaN,NaN,NaN
10,13,NaN,NaN,NaN
10,14,NaN,NaN,NaN
10,15,NaN,NaN,NaN
10,16,NaN,NaN,NaN
10,17,NaN,NaN,NaN
10,18,NaN,NaN,NaN
10,19,NaN,NaN,NaN
10,20,NaN,NaN,NaN
10,21,NaN,NaN,NaN
10,22,NaN,NaN,NaN
10,23,NaN,NaN,NaN
10,24,NaN,NaN,NaN
10,25,NaN,NaN,NaN
10,26,NaN,NaN,NaN
10,27,NaN,NaN,NaN
10,28,NaN,NaN,NaN
10,29,NaN,NaN,NaN
10,30,NaN,NaN,NaN
10,31,NaN,NaN,NaN
10,32,NaN,NaN,NaN
10,33,NaN,NaN,NaN
10,34,NaN,NaN,NaN
10,35,NaN,NaN,NaN
10,36,NaN,NaN,NaN
10,37,NaN,NaN,NaN
10,38,NaN,NaN,NaN
10,39,NaN,NaN,NaN
10,40,NaN,NaN,NaN
10,41,NaN,NaN,NaN
10,42,NaN,NaN,NaN
10,43,NaN,NaN,NaN
10,44,NaN,NaN,NaN
10,45,NaN,NaN,NaN
10,46,NaN,NaN,NaN
10,47,NaN,NaN,NaN
10,48,NaN,NaN,NaN
10,49,NaN,NaN,NaN
10,50,NaN,NaN,NaN
10,51,NaN,NaN,NaN
10,52,NaN,NaN,NaN
10,53,NaN,NaN,NaN
10,54,NaN,NaN,NaN
10,55,NaN,NaN,NaN
10,56,NaN,NaN,NaN
10,57,NaN,NaN,NaN
10,58,NaN,NaN,NaN
10,59,NaN,NaN,NaN
10,60,NaN,NaN,NaN
10,61,NaN,NaN,NaN
10,62,NaN,NaN,NaN
10,63,NaN,NaN,NaN
10,64,NaN,NaN,NaN
10,65,NaN,NaN,NaN
10,66,NaN,NaN,NaN
10,67,NaN,NaN,NaN
10,68,NaN,NaN,NaN
10,69,NaN,NaN,NaN
10,70,NaN,NaN,NaN
10,71,NaN,NaN,NaN
10,72,NaN,NaN,NaN
10,73,NaN,NaN,NaN
10,74,NaN,NaN,NaN
10,75,NaN,NaN,NaN
10,76,NaN,NaN,NaN
10,77,NaN,NaN,NaN
10,78,NaN,NaN,NaN
10,79,NaN,NaN,NaN
10,80,NaN,NaN,NaN
10,81,NaN,NaN,NaN
10,82,NaN,NaN,NaN
10,83,NaN,NaN,NaN
10,84,NaN,NaN,NaN
10,85,NaN,NaN,NaN
10,86,NaN,NaN,NaN
10,87,NaN,NaN,NaN
10,88,NaN,NaN,NaN
10,89,NaN,NaN,NaN
10,90,NaN,NaN,NaN
10,91,NaN,NaN,NaN
10,92,NaN,NaN,NaN
10,93,NaN,NaN,NaN
10,94,NaN,NaN,NaN
10,95,NaN,NaN,NaN
10,96,NaN,NaN,NaN
10,97,NaN,NaN,NaN
10,98,NaN,NaN,NaN
10,99,NaN,NaN,NaN
10,100,NaN,NaN,NaN
10,101,NaN,NaN,NaN
10,102,NaN,NaN,NaN
10,103,NaN,NaN,NaN
10,104,NaN,NaN,NaN
10,105,NaN,NaN,NaN
10,106,NaN,NaN,NaN
10,107,NaN,NaN,NaN
10,108,NaN,NaN,NaN
10,109,NaN,NaN,NaN
10,110,NaN,NaN,NaN
10,111,NaN,NaN,NaN
10,112,NaN,NaN,NaN
10,113,NaN,NaN,NaN
10,114,NaN,NaN,NaN
10,115,NaN,NaN,NaN
10,116,NaN,NaN,NaN
10,117,NaN,NaN,NaN
10,118,NaN,NaN,NaN
10,119,NaN,NaN,NaN
10,120,NaN,NaN,NaN
10,121,NaN,NaN,NaN
10,122,NaN,NaN,NaN
10,123,NaN,NaN,NaN
10,124,NaN,NaN,NaN
10,125,NaN,NaN,NaN
10,126,NaN,NaN,NaN
10,127,NaN,NaN,NaN
10,128,NaN,NaN,NaN
10,129,NaN,NaN,NaN
11,1,NaN,NaN,NaN
11,2,NaN,NaN,NaN
11,3,NaN,NaN,NaN
11,4,NaN,NaN,NaN
11,5,NaN,NaN,NaN
11,6,NaN,NaN,NaN
11,7,NaN,NaN,NaN
11,8,NaN,NaN,NaN
11,9,NaN,NaN,NaN
11,10,NaN,NaN,NaN
11,11,NaN,NaN,NaN
11,12,NaN,NaN,NaN
11,13,NaN,NaN,NaN
11,14,NaN,NaN,NaN
11,15,NaN,NaN,NaN
11,16,NaN,NaN,NaN
11,17,NaN,NaN,NaN
11,18,NaN,NaN,NaN
11,19,NaN,NaN,NaN
11,20,NaN,NaN,NaN
11,21,NaN,NaN,NaN
11,22,NaN,NaN,NaN
11,23,NaN,NaN,NaN
11,24,NaN,NaN,NaN
11,25,NaN,NaN,NaN
11,26,NaN,NaN,NaN
11,27,NaN,NaN,NaN
11,28,NaN,NaN,NaN
11,29,NaN,NaN,NaN
11,30,NaN,NaN,NaN
11,31,NaN,NaN,NaN
11,32,NaN,NaN,NaN
11,33,NaN,NaN,NaN
11,34,NaN,NaN,NaN
11,35,NaN,NaN,NaN
11,36,NaN,NaN,NaN
11,37,NaN,NaN,NaN
11,38,NaN,NaN,NaN
11,39,NaN,NaN,NaN
11,40,NaN,NaN,NaN
11,41,NaN,NaN,NaN
11,42,NaN,NaN,NaN
11,43,NaN,NaN,NaN
11,44,NaN,NaN,NaN
11,45,NaN,NaN,NaN
11,46,NaN,NaN,NaN
11,47,NaN,NaN,NaN
11,48,NaN,NaN,NaN
11,49,NaN,NaN,NaN
11,50,NaN,NaN,NaN
11,51,NaN,NaN,NaN
11,52,NaN,NaN,NaN
11,53,NaN,NaN,NaN
11,54,NaN,NaN,NaN
11,55,NaN,NaN,NaN
11,56,NaN,NaN,NaN
11,57,NaN,NaN,NaN
11,58,NaN,NaN,NaN
11,59,NaN,NaN,NaN
11,60,NaN,NaN,NaN
11,61,NaN,NaN,NaN
11,62,NaN,NaN,NaN
11,63,NaN,NaN,NaN
11,64,NaN,NaN,NaN
11,65,NaN,NaN,NaN
11,66,NaN,NaN,NaN
11,67,NaN,NaN,NaN
11,68,NaN,NaN,NaN
11,69,NaN,NaN,NaN
11,70,NaN,NaN,NaN
11,71,NaN,NaN,NaN
11,72,NaN,NaN,NaN
11,73,NaN,NaN,NaN
11,74,NaN,NaN,NaN
11,75,NaN,NaN,NaN
11,76,NaN,NaN,NaN
11,77,NaN,NaN,NaN
11,78,NaN,NaN,NaN
11,79,NaN,NaN,NaN
11,80,NaN,NaN,NaN
11,81,NaN,NaN,NaN
11,82,NaN,NaN,NaN
11,83,NaN,NaN,NaN
11,84,NaN,NaN,NaN
11,85,NaN,NaN,NaN
11,86,NaN,NaN,NaN
11,87,NaN,NaN,NaN
11,88,NaN,NaN,NaN
11,89,NaN,NaN,NaN
11,90,NaN,NaN,NaN
11,91,NaN,NaN,NaN
11,92,NaN,NaN,NaN
11,93,NaN,NaN,NaN
11,94,NaN,NaN,NaN
11,95,NaN,NaN,NaN
11,96,NaN,NaN,NaN
11,97,NaN,NaN,NaN
11,98,NaN,NaN,NaN
11,99,NaN,NaN,NaN
11,100,NaN,NaN,NaN
11,101,NaN,NaN,NaN
11,102,NaN,NaN,NaN
11,103,NaN,NaN,NaN
11,104,NaN,NaN,NaN
11,105,NaN,NaN,NaN
11,106,NaN,NaN,NaN
11,107,NaN,NaN,NaN
11,108,NaN,NaN,NaN
11,109,NaN,NaN,NaN
11,110,NaN,NaN,NaN
11,111,NaN,NaN,NaN
11,112,NaN,NaN,NaN
11,113,NaN,NaN,NaN
11,114,NaN,NaN,NaN
11,115,NaN,NaN,NaN
11,116,NaN,NaN,NaN
11,117,NaN,NaN,NaN
11,118,NaN,NaN,NaN
11,119,NaN,NaN,NaN
11,120,NaN,NaN,NaN
11,121,NaN,NaN,NaN
11,122,NaN,NaN,NaN
11,123,NaN,NaN,NaN
11,124,NaN,NaN,NaN
11,125,NaN,NaN,NaN
11,126,NaN,NaN,NaN
11,127,NaN,NaN,NaN
11,128,NaN,NaN,NaN
11,129,NaN,NaN,NaN
12,1,NaN,NaN,NaN
12,2,NaN,NaN,NaN
12,3,NaN,NaN,NaN
12,4,NaN,NaN,NaN
12,5,NaN,NaN,NaN
12,6,NaN,NaN,NaN
12,7,NaN,NaN,NaN
12,8,NaN,NaN,NaN
12,9,NaN,NaN,NaN
12,10,NaN,NaN,NaN
12,11,NaN,NaN,NaN
12,12,NaN,NaN,NaN
12,13,NaN,NaN,NaN
12,14,NaN,NaN,NaN
12,15,NaN,NaN,NaN
12,16,NaN,NaN,NaN
12,17,NaN,NaN,NaN
12,18,NaN,NaN,NaN
12,19,NaN,NaN,NaN
12,20,NaN,NaN,NaN
12,21,NaN,NaN,NaN
12,22,NaN,NaN,NaN
12,23,NaN,NaN,NaN
12,24,NaN,NaN,NaN
12,25,NaN,NaN,NaN
12,26,NaN,NaN,NaN
12,27,NaN,NaN,NaN
12,28,NaN,NaN,NaN
12,29,NaN,NaN,NaN
12,30,NaN,NaN,NaN
12,31,NaN,NaN,NaN
12,32,NaN,NaN,NaN
12,33,NaN,NaN,NaN
12,34,NaN,NaN,NaN
12,35,NaN,NaN,NaN
12,36,NaN,NaN,NaN
12,37,NaN,NaN,NaN
12,38,NaN,NaN,NaN
12,39,NaN,NaN,NaN
12,40,NaN,NaN,NaN
12,41,NaN,NaN,NaN
12,42,NaN,NaN,NaN
12,43,NaN,NaN,NaN
12,44,NaN,NaN,NaN
12,45,NaN,NaN,NaN
12,46,NaN,NaN,NaN
12,47,NaN,NaN,NaN
12,48,NaN,NaN,NaN
12,49,NaN,NaN,NaN
12,50,NaN,NaN,NaN
12,51,NaN,NaN,NaN
12,52,NaN,NaN,NaN
12,53,NaN,NaN,NaN
12,54,NaN,NaN,NaN
12,55,NaN,NaN,NaN
12,56,NaN,NaN,NaN
12,57,NaN,NaN,NaN
12,58,NaN,NaN,NaN
12,59,NaN,NaN,NaN
12,60,NaN,NaN,NaN
12,61,NaN,NaN,NaN
12,62,NaN,NaN,NaN
12,63,NaN,NaN,NaN
12,64,NaN,NaN,NaN
12,65,NaN,NaN,NaN
12,66,NaN,NaN,NaN
12,67,NaN,NaN,NaN
12,68,NaN,NaN,NaN
12,69,NaN,NaN,NaN
12,70,NaN,NaN,NaN
12,71,NaN,NaN,NaN
12,72,NaN,NaN,NaN
12,73,NaN,NaN,NaN
12,74,NaN,NaN,NaN
12,75,NaN,NaN,NaN
12,76,NaN,NaN,NaN
12,77,NaN,NaN,NaN
12,78,NaN,NaN,NaN
12,79,NaN,NaN,NaN
12,80,NaN,NaN,NaN
12,81,NaN,NaN,NaN
12,82,NaN,NaN,NaN
12,83,NaN,NaN,NaN
12,84,NaN,NaN,NaN
12,85,NaN,NaN,NaN
12,86,NaN,NaN,NaN
12,87,NaN,NaN,NaN
12,88,NaN,NaN,NaN
12,89,NaN,NaN,NaN
12,90,NaN,NaN,NaN
12,91,NaN,NaN,NaN
12,92,NaN,NaN,NaN
12,93,NaN,NaN,NaN
12,94,NaN,NaN,NaN
12,95,NaN,NaN,NaN
12,96,NaN,NaN,NaN
12,97,NaN,NaN,NaN
12,98,NaN,NaN,NaN
12,99,NaN,NaN,NaN
12,100,NaN,NaN,NaN
12,101,NaN,NaN,NaN
12,102,NaN,NaN,NaN
12,103,NaN,NaN,NaN
12,104,NaN,NaN,NaN
12,105,NaN,NaN,NaN
12,106,NaN,NaN,NaN
12,107,NaN,NaN,NaN
12,108,NaN,NaN,NaN
12,109,NaN,NaN,NaN
12,110,NaN,NaN,NaN
12,111,NaN,NaN,NaN
12,112,NaN,NaN,NaN
12,113,NaN,NaN,NaN
12,114,NaN,NaN,NaN
12,115,NaN,NaN,NaN
12,116,NaN,NaN,NaN
12,117,NaN,NaN,NaN
12,118,NaN,NaN,NaN
12,119,NaN,NaN,NaN
12,120,NaN,NaN,NaN
12,121,NaN,NaN,NaN
12,122,NaN,NaN,NaN
12,123,NaN,NaN,NaN
12,124,NaN,NaN,NaN
12,125,NaN,NaN,NaN
12,126,NaN,NaN,NaN
12,127,NaN,NaN,NaN
12,128,NaN,NaN,NaN
12,129,NaN,NaN,NaN
13,1,NaN,NaN,NaN
13,2,NaN,NaN,NaN
13,3,NaN,NaN,NaN
13,4,NaN,NaN,NaN
13,5,NaN,NaN,NaN
13,6,NaN,NaN,NaN
13,7,NaN,NaN,NaN
13,8,NaN,NaN,NaN
13,9,NaN,NaN,NaN
13,10,NaN,NaN,NaN
13,11,NaN,NaN,NaN
13,12,NaN,NaN,NaN
13,13,NaN,NaN,NaN
13,14,NaN,NaN,NaN
13,15,NaN,NaN,NaN
13,16,NaN,NaN,NaN
13,17,NaN,NaN,NaN
13,18,NaN,NaN,NaN
13,19,NaN,NaN,NaN
13,20,NaN,NaN,NaN
13,21,NaN,NaN,NaN
13,22,NaN,NaN,NaN
13,23,NaN,NaN,NaN
13,24,NaN,NaN,NaN
13,25,NaN,NaN,NaN
13,26,NaN,NaN,NaN
13,27,NaN,NaN,NaN
13,28,NaN,NaN,NaN
13,29,NaN,NaN,NaN
13,30,NaN,NaN,NaN
13,31,NaN,NaN,NaN
13,32,NaN,NaN,NaN
13,33,NaN,NaN,NaN
13,34,NaN,NaN,NaN
13,35,NaN,NaN,NaN
13,36,NaN,NaN,NaN
13,37,NaN,NaN,NaN
13,38,NaN,NaN,NaN
13,39,NaN,NaN,NaN
13,40,NaN,NaN,NaN
13,41,NaN,NaN,NaN
13,42,NaN,NaN,NaN
13,43,NaN,NaN,NaN
13,44,NaN,NaN,NaN
13,45,NaN,NaN,NaN
13,46,NaN,NaN,NaN
13,47,NaN,NaN,NaN
13,48,NaN,NaN,NaN
13,49,NaN,NaN,NaN
13,50,NaN,NaN,NaN
13,51,NaN,NaN,NaN
13,52,NaN,NaN,NaN
13,53,NaN,NaN,NaN
13,54,NaN,NaN,NaN
13,55,NaN,NaN,NaN
13,56,NaN,NaN,NaN
13,57,NaN,NaN,NaN
13,58,NaN,NaN,NaN
13,59,NaN,NaN,NaN
13,60,NaN,NaN,NaN
13,61,NaN,NaN,NaN
13,62,NaN,NaN,NaN
13,63,NaN,NaN,NaN
13,64,NaN,NaN,NaN
13,65,NaN,NaN,NaN
13,66,NaN,NaN,NaN
13,67,NaN,NaN,NaN
13,68,NaN,NaN,NaN
13,69,NaN,NaN,NaN
13,70,NaN,NaN,NaN
13,71,NaN,NaN,NaN
13,72,NaN,NaN,NaN
13,73,NaN,NaN,NaN
13,74,NaN,NaN,NaN
13,75,NaN,NaN,NaN
13,76,NaN,NaN,NaN
13,77,NaN,NaN,NaN
13,78,NaN,NaN,NaN
13,79,NaN,NaN,NaN
13,80,NaN,NaN,NaN
13,81,NaN,NaN,NaN
13,82,NaN,NaN,NaN
13,83,NaN,NaN,NaN
13,84,NaN,NaN,NaN
13,85,NaN,NaN,NaN
13,86,NaN,NaN,NaN
13,87,NaN,NaN,NaN
13,88,NaN,NaN,NaN
13,89,NaN,NaN,NaN
13,90,NaN,NaN,NaN
13,91,NaN,NaN,NaN
13,92,NaN,NaN,NaN
13,93,NaN,NaN,NaN
13,94,NaN,NaN,NaN
13,95,NaN,NaN,NaN
13,96,NaN,NaN,NaN
13,97,NaN,NaN,NaN
13,98,NaN,NaN,NaN
13,99,NaN,NaN,NaN
13,100,NaN,NaN,NaN
13,101,NaN,NaN,NaN
13,102,NaN,NaN,NaN
13,103,NaN,NaN,NaN
13,104,NaN,NaN,NaN
13,105,NaN,NaN,NaN
13,106,NaN,NaN,NaN
13,107,NaN,NaN,NaN
13,108,NaN,NaN,NaN
13,109,NaN,NaN,NaN
13,110,NaN,NaN,NaN
13,111,NaN,NaN,NaN
13,112,NaN,NaN,NaN
13,113,NaN,NaN,NaN
13,114,NaN,NaN,NaN
13,115,NaN,NaN,NaN
13,116,NaN,NaN,NaN
13,117,NaN,NaN,NaN
13,118,NaN,NaN,NaN
13,119,NaN,NaN,NaN
13,120,NaN,NaN,NaN
13,121,NaN,NaN,NaN
13,122,NaN,NaN,NaN
13,123,NaN,NaN,NaN
13,124,NaN,NaN,NaN
13,125,NaN,NaN,NaN
13,126,NaN,NaN,NaN
13,127,NaN,NaN,NaN
13,128,NaN,NaN,NaN
13,129,NaN,NaN,NaN
14,1,NaN,NaN,NaN
14,2,NaN,NaN,NaN
14,3,NaN,NaN,NaN
14,4,NaN,NaN,NaN
14,5,NaN,NaN,NaN
14,6,NaN,NaN,NaN
14,7,NaN,NaN,NaN
14,8,NaN,NaN,NaN
14,9,NaN,NaN,NaN
14,10,NaN,NaN,NaN
14,11,NaN,NaN,NaN
14,12,NaN,NaN,NaN
14,13,NaN,NaN,NaN
14,14,NaN,NaN,NaN
14,15,NaN,NaN,NaN
14,16,NaN,NaN,NaN
14,17,NaN,NaN,NaN
14,18,NaN,NaN,NaN
14,19,NaN,NaN,NaN
14,20,NaN,NaN,NaN
14,21,NaN,NaN,NaN
14,22,NaN,NaN,NaN
14,23,NaN,NaN,NaN
14,24,NaN,NaN,NaN
14,25,NaN,NaN,NaN
14,26,NaN,NaN,NaN
14,27,NaN,NaN,NaN
14,28,NaN,NaN,NaN
14,29,NaN,NaN,NaN
14,30,NaN,NaN,NaN
14,31,NaN,NaN,NaN
14,32,NaN,NaN,NaN
14,33,NaN,NaN,NaN
14,34,NaN,NaN,NaN
14,35,NaN,NaN,NaN